[Molden Format]
made by pyscf v[2.1.0]
[Atoms] (AU)
C   1   6     5.80518952178463     0.50358555603085    -2.01447450495210
O   2   8     7.59006230260208    -0.90749372816926    -2.10619425213399
C   3   6     4.06257668629083     0.88716594424731     0.25526042545400
O   4   8     4.92221121062936    -0.52198770903186     2.35899047472156
C   5   6     1.33654470639501     0.10405776904918    -0.51168492220073
H   6   1     0.89689425433657     0.93209418285884    -2.36575758397362
C   7   6    -0.64932879366180     1.09909683939116     1.38333243551311
O   8   8    -0.00969996419739     0.43834276158024     3.94911375031970
C   9   6    -3.35971006179398     0.18432766564233     0.79610193203064
H   10   1    -4.66165577257433     1.18213140530455     2.06285149374097
C   11   6    -4.19715353225174     0.65517938574345    -1.93554631390739
O   12   8    -6.81065988033421     0.10526341431665    -2.27483908066855
H   13   1     5.22581272007586     1.68491382773245    -3.67455355195552
H   14   1     4.03225036144381     2.94522509253638     0.63780524375420
H   15   1     3.63813663980902    -0.25163782047321     3.65830001755813
O   16   8     1.20169573987217    -2.59733407190845    -0.80186748643669
H   17   1    -0.61314809728088     3.17348700084872     1.28243995772258
H   18   1    -0.91242591335437    -1.12422074821725     4.30347519319814
O   19   8    -3.63012231131474    -2.45370354808476     1.43919651920751
H   20   1    -3.01998643747642    -0.49263081368674    -3.22017268475610
H   21   1    -3.94341055687576     2.65625195302014    -2.42398382532372
H   22   1    -7.07185971499772    -1.58002646891459    -1.60535635788826
H   23   1     2.47305434360030    -3.30624782000391     0.32275766317121
H   24   1    -2.30526934045242    -3.31584195953833     0.48480734753104
[GTO]
1 0
 s    8 1.00
                  6665  0.00069158396281299
                  1000  0.0053257961529341
                   228   0.027060721042034
                 64.71    0.10165684614077
                 21.06     0.2745748236174
                 7.495    0.44829431892377
                 2.797    0.28490261071525
                0.5215   0.015194859206082
 s    8 1.00
                  6665  -0.00029326965268655
                  1000  -0.0023180354739745
                   228  -0.011499786038565
                 64.71  -0.046826727009787
                 21.06   -0.12846616875047
                 7.495   -0.30126627246289
                 2.797   -0.25563070233011
                0.5215      1.093793361012
 s    1 1.00
                0.1596                   1
 p    3 1.00
                 9.439   0.056979251590039
                 2.002    0.31320721150073
                0.5456    0.76037674173753
 p    1 1.00
                0.1517                   1
 d    1 1.00
                  0.55                   1

2 0
 s    8 1.00
                 11720  0.00070964594651845
                  1759  0.0054672722921914
                 400.8   0.027823118610189
                 113.7    0.10474773971146
                 37.03    0.28292084635691
                 13.27    0.44849523869833
                 5.025    0.27081688521277
                 1.013    0.01545029160744
 s    8 1.00
                 11720  -0.00031444341168873
                  1759  -0.0024821376810179
                 400.8  -0.012316355381583
                 113.7  -0.050538917343672
                 37.03   -0.13938490331632
                 13.27   -0.32507749481778
                 5.025   -0.22984830758785
                 1.013     1.0953793467883
 s    1 1.00
                0.3023                   1
 p    3 1.00
                  17.7   0.062679166281506
                 3.854    0.33353656587936
                 1.046    0.74123964163973
 p    1 1.00
                0.2753                   1
 d    1 1.00
                 1.185                   1

3 0
 s    8 1.00
                  6665  0.00069158396281299
                  1000  0.0053257961529341
                   228   0.027060721042034
                 64.71    0.10165684614077
                 21.06     0.2745748236174
                 7.495    0.44829431892377
                 2.797    0.28490261071525
                0.5215   0.015194859206082
 s    8 1.00
                  6665  -0.00029326965268655
                  1000  -0.0023180354739745
                   228  -0.011499786038565
                 64.71  -0.046826727009787
                 21.06   -0.12846616875047
                 7.495   -0.30126627246289
                 2.797   -0.25563070233011
                0.5215      1.093793361012
 s    1 1.00
                0.1596                   1
 p    3 1.00
                 9.439   0.056979251590039
                 2.002    0.31320721150073
                0.5456    0.76037674173753
 p    1 1.00
                0.1517                   1
 d    1 1.00
                  0.55                   1

4 0
 s    8 1.00
                 11720  0.00070964594651845
                  1759  0.0054672722921914
                 400.8   0.027823118610189
                 113.7    0.10474773971146
                 37.03    0.28292084635691
                 13.27    0.44849523869833
                 5.025    0.27081688521277
                 1.013    0.01545029160744
 s    8 1.00
                 11720  -0.00031444341168873
                  1759  -0.0024821376810179
                 400.8  -0.012316355381583
                 113.7  -0.050538917343672
                 37.03   -0.13938490331632
                 13.27   -0.32507749481778
                 5.025   -0.22984830758785
                 1.013     1.0953793467883
 s    1 1.00
                0.3023                   1
 p    3 1.00
                  17.7   0.062679166281506
                 3.854    0.33353656587936
                 1.046    0.74123964163973
 p    1 1.00
                0.2753                   1
 d    1 1.00
                 1.185                   1

5 0
 s    8 1.00
                  6665  0.00069158396281299
                  1000  0.0053257961529341
                   228   0.027060721042034
                 64.71    0.10165684614077
                 21.06     0.2745748236174
                 7.495    0.44829431892377
                 2.797    0.28490261071525
                0.5215   0.015194859206082
 s    8 1.00
                  6665  -0.00029326965268655
                  1000  -0.0023180354739745
                   228  -0.011499786038565
                 64.71  -0.046826727009787
                 21.06   -0.12846616875047
                 7.495   -0.30126627246289
                 2.797   -0.25563070233011
                0.5215      1.093793361012
 s    1 1.00
                0.1596                   1
 p    3 1.00
                 9.439   0.056979251590039
                 2.002    0.31320721150073
                0.5456    0.76037674173753
 p    1 1.00
                0.1517                   1
 d    1 1.00
                  0.55                   1

6 0
 s    3 1.00
                 13.01   0.033498726389998
                 1.962    0.23480080117413
                0.4446     0.8136829578829
 s    1 1.00
                 0.122                   1
 p    1 1.00
                 0.727                   1

7 0
 s    8 1.00
                  6665  0.00069158396281299
                  1000  0.0053257961529341
                   228   0.027060721042034
                 64.71    0.10165684614077
                 21.06     0.2745748236174
                 7.495    0.44829431892377
                 2.797    0.28490261071525
                0.5215   0.015194859206082
 s    8 1.00
                  6665  -0.00029326965268655
                  1000  -0.0023180354739745
                   228  -0.011499786038565
                 64.71  -0.046826727009787
                 21.06   -0.12846616875047
                 7.495   -0.30126627246289
                 2.797   -0.25563070233011
                0.5215      1.093793361012
 s    1 1.00
                0.1596                   1
 p    3 1.00
                 9.439   0.056979251590039
                 2.002    0.31320721150073
                0.5456    0.76037674173753
 p    1 1.00
                0.1517                   1
 d    1 1.00
                  0.55                   1

8 0
 s    8 1.00
                 11720  0.00070964594651845
                  1759  0.0054672722921914
                 400.8   0.027823118610189
                 113.7    0.10474773971146
                 37.03    0.28292084635691
                 13.27    0.44849523869833
                 5.025    0.27081688521277
                 1.013    0.01545029160744
 s    8 1.00
                 11720  -0.00031444341168873
                  1759  -0.0024821376810179
                 400.8  -0.012316355381583
                 113.7  -0.050538917343672
                 37.03   -0.13938490331632
                 13.27   -0.32507749481778
                 5.025   -0.22984830758785
                 1.013     1.0953793467883
 s    1 1.00
                0.3023                   1
 p    3 1.00
                  17.7   0.062679166281506
                 3.854    0.33353656587936
                 1.046    0.74123964163973
 p    1 1.00
                0.2753                   1
 d    1 1.00
                 1.185                   1

9 0
 s    8 1.00
                  6665  0.00069158396281299
                  1000  0.0053257961529341
                   228   0.027060721042034
                 64.71    0.10165684614077
                 21.06     0.2745748236174
                 7.495    0.44829431892377
                 2.797    0.28490261071525
                0.5215   0.015194859206082
 s    8 1.00
                  6665  -0.00029326965268655
                  1000  -0.0023180354739745
                   228  -0.011499786038565
                 64.71  -0.046826727009787
                 21.06   -0.12846616875047
                 7.495   -0.30126627246289
                 2.797   -0.25563070233011
                0.5215      1.093793361012
 s    1 1.00
                0.1596                   1
 p    3 1.00
                 9.439   0.056979251590039
                 2.002    0.31320721150073
                0.5456    0.76037674173753
 p    1 1.00
                0.1517                   1
 d    1 1.00
                  0.55                   1

10 0
 s    3 1.00
                 13.01   0.033498726389998
                 1.962    0.23480080117413
                0.4446     0.8136829578829
 s    1 1.00
                 0.122                   1
 p    1 1.00
                 0.727                   1

11 0
 s    8 1.00
                  6665  0.00069158396281299
                  1000  0.0053257961529341
                   228   0.027060721042034
                 64.71    0.10165684614077
                 21.06     0.2745748236174
                 7.495    0.44829431892377
                 2.797    0.28490261071525
                0.5215   0.015194859206082
 s    8 1.00
                  6665  -0.00029326965268655
                  1000  -0.0023180354739745
                   228  -0.011499786038565
                 64.71  -0.046826727009787
                 21.06   -0.12846616875047
                 7.495   -0.30126627246289
                 2.797   -0.25563070233011
                0.5215      1.093793361012
 s    1 1.00
                0.1596                   1
 p    3 1.00
                 9.439   0.056979251590039
                 2.002    0.31320721150073
                0.5456    0.76037674173753
 p    1 1.00
                0.1517                   1
 d    1 1.00
                  0.55                   1

12 0
 s    8 1.00
                 11720  0.00070964594651845
                  1759  0.0054672722921914
                 400.8   0.027823118610189
                 113.7    0.10474773971146
                 37.03    0.28292084635691
                 13.27    0.44849523869833
                 5.025    0.27081688521277
                 1.013    0.01545029160744
 s    8 1.00
                 11720  -0.00031444341168873
                  1759  -0.0024821376810179
                 400.8  -0.012316355381583
                 113.7  -0.050538917343672
                 37.03   -0.13938490331632
                 13.27   -0.32507749481778
                 5.025   -0.22984830758785
                 1.013     1.0953793467883
 s    1 1.00
                0.3023                   1
 p    3 1.00
                  17.7   0.062679166281506
                 3.854    0.33353656587936
                 1.046    0.74123964163973
 p    1 1.00
                0.2753                   1
 d    1 1.00
                 1.185                   1

13 0
 s    3 1.00
                 13.01   0.033498726389998
                 1.962    0.23480080117413
                0.4446     0.8136829578829
 s    1 1.00
                 0.122                   1
 p    1 1.00
                 0.727                   1

14 0
 s    3 1.00
                 13.01   0.033498726389998
                 1.962    0.23480080117413
                0.4446     0.8136829578829
 s    1 1.00
                 0.122                   1
 p    1 1.00
                 0.727                   1

15 0
 s    3 1.00
                 13.01   0.033498726389998
                 1.962    0.23480080117413
                0.4446     0.8136829578829
 s    1 1.00
                 0.122                   1
 p    1 1.00
                 0.727                   1

16 0
 s    8 1.00
                 11720  0.00070964594651845
                  1759  0.0054672722921914
                 400.8   0.027823118610189
                 113.7    0.10474773971146
                 37.03    0.28292084635691
                 13.27    0.44849523869833
                 5.025    0.27081688521277
                 1.013    0.01545029160744
 s    8 1.00
                 11720  -0.00031444341168873
                  1759  -0.0024821376810179
                 400.8  -0.012316355381583
                 113.7  -0.050538917343672
                 37.03   -0.13938490331632
                 13.27   -0.32507749481778
                 5.025   -0.22984830758785
                 1.013     1.0953793467883
 s    1 1.00
                0.3023                   1
 p    3 1.00
                  17.7   0.062679166281506
                 3.854    0.33353656587936
                 1.046    0.74123964163973
 p    1 1.00
                0.2753                   1
 d    1 1.00
                 1.185                   1

17 0
 s    3 1.00
                 13.01   0.033498726389998
                 1.962    0.23480080117413
                0.4446     0.8136829578829
 s    1 1.00
                 0.122                   1
 p    1 1.00
                 0.727                   1

18 0
 s    3 1.00
                 13.01   0.033498726389998
                 1.962    0.23480080117413
                0.4446     0.8136829578829
 s    1 1.00
                 0.122                   1
 p    1 1.00
                 0.727                   1

19 0
 s    8 1.00
                 11720  0.00070964594651845
                  1759  0.0054672722921914
                 400.8   0.027823118610189
                 113.7    0.10474773971146
                 37.03    0.28292084635691
                 13.27    0.44849523869833
                 5.025    0.27081688521277
                 1.013    0.01545029160744
 s    8 1.00
                 11720  -0.00031444341168873
                  1759  -0.0024821376810179
                 400.8  -0.012316355381583
                 113.7  -0.050538917343672
                 37.03   -0.13938490331632
                 13.27   -0.32507749481778
                 5.025   -0.22984830758785
                 1.013     1.0953793467883
 s    1 1.00
                0.3023                   1
 p    3 1.00
                  17.7   0.062679166281506
                 3.854    0.33353656587936
                 1.046    0.74123964163973
 p    1 1.00
                0.2753                   1
 d    1 1.00
                 1.185                   1

20 0
 s    3 1.00
                 13.01   0.033498726389998
                 1.962    0.23480080117413
                0.4446     0.8136829578829
 s    1 1.00
                 0.122                   1
 p    1 1.00
                 0.727                   1

21 0
 s    3 1.00
                 13.01   0.033498726389998
                 1.962    0.23480080117413
                0.4446     0.8136829578829
 s    1 1.00
                 0.122                   1
 p    1 1.00
                 0.727                   1

22 0
 s    3 1.00
                 13.01   0.033498726389998
                 1.962    0.23480080117413
                0.4446     0.8136829578829
 s    1 1.00
                 0.122                   1
 p    1 1.00
                 0.727                   1

23 0
 s    3 1.00
                 13.01   0.033498726389998
                 1.962    0.23480080117413
                0.4446     0.8136829578829
 s    1 1.00
                 0.122                   1
 p    1 1.00
                 0.727                   1

24 0
 s    3 1.00
                 13.01   0.033498726389998
                 1.962    0.23480080117413
                0.4446     0.8136829578829
 s    1 1.00
                 0.122                   1
 p    1 1.00
                 0.727                   1

[5d]
[7f]
[9g]

[MO]
 Sym= A
 Ene=     -20.5989454
 Spin= Alpha
 Occup=    2.00000
   1    -0.00051487718437195
   2    -0.0021782022964212
   3    0.0055481681897647
   4    -0.00020739998121928
   5    -0.0017154681215044
   6    -0.0010976263668363
   7    0.0024251839062244
   8    -0.0034725684008177
   9    0.0058954108089445
  10    0.00047553034088205
  11    0.00022825357588335
  12    -0.00070875605491874
  13    0.00042334003952076
  14    0.00013984349480822
  15    4.185282383699e-05
  16    -0.0003183818009907
  17    -0.0026469278158816
  18    0.0013361971569687
  19    0.0014740260416452
  20    -0.0012474605494881
  21    0.00095759409389883
  22    0.0010762165609987
  23    -0.00086982147042569
  24    0.0001330891945114
  25    3.9181892914041e-05
  26    -0.00014501747517633
  27    1.4601918256772e-05
  28    4.3144666844709e-08
  29    0.0001963667105664
  30    -0.0035537927932714
  31    -0.019013840506345
  32    0.0071911211503135
  33    -0.0028427543134014
  34    -0.0034158911686697
  35    -0.012982872961934
  36     0.014321214177315
  37    -0.0012915027597361
  38    4.795188955841e-05
  39    -0.00094641445154935
  40    0.0017198034151227
  41    0.0010642248527519
  42    -0.00078987297088477
  43    0.00054371721508696
  44     -0.01335928847747
  45    -0.030939280935169
  46     0.032171451737782
  47    -0.0060342954906241
  48    -0.021131976425716
  49     0.026892234170296
  50    -0.0015659962554067
  51     -0.03476185732097
  52    0.00011715898488389
  53    0.00042852869817999
  54    -0.00041777610524775
  55    4.566813657578e-05
  56    0.00041696289035346
  57    -0.0015542510818372
  58    -0.023425115956053
  59    -0.047247273421267
  60     0.019741446848202
  61    -0.0094109070704193
  62    -0.032689537361786
  63     0.022925764087476
  64    -0.020792397528167
  65    -0.019599226478287
  66    -0.00069105993919126
  67    0.0020285241650392
  68    -0.0013918827414804
  69    -0.0001085375858182
  70    -0.0023624835384587
  71     0.013531864901627
  72     0.018718001302726
  73    0.0016787106947044
  74    -0.00063845109076604
  75    -0.00054068249946898
  76    -0.0040658926650869
  77     -0.02751103347978
  78     0.016248709197962
  79    -0.0050390250268276
  80    0.0060304606788766
  81     -0.03889389070536
  82    -0.010370301087703
  83    -0.013357787153676
  84     -0.01628846454241
  85     -0.01627961179024
  86     0.024459481087905
  87    -0.0030655554160385
  88    0.0054889709336733
  89    -0.0049555248945916
  90    -0.005142026841546
  91      0.18000162945551
  92      0.25236579031269
  93      0.55611043216344
  94     -0.15239863211988
  95    -0.037933592683264
  96      0.42697866397315
  97      -0.1267368707489
  98    -0.032771557392572
  99    0.0030257271621338
 100    -0.010162813553062
 101    0.0037866308774493
 102    -0.0081755141938355
 103    -0.0064200963186948
 104      0.00171379676963
 105     0.022804607539131
 106     0.038495800909664
 107     0.028400596599292
 108     0.013817786920114
 109     0.014422858810073
 110    -0.0098665891126981
 111     0.031061934995521
 112    -0.029547521978651
 113    -0.0012477210669852
 114    -0.0018979642473552
 115    0.00068302055840596
 116    -0.00023865832865372
 117    -0.0013175683948834
 118    0.0093074789456952
 119    -0.016916164568454
 120    -0.00012883638887605
 121    -0.00063041671504732
 122    0.00044907379930321
 123    0.0015621700507905
 124    -0.0064242432350341
 125    -0.053898279051324
 126    -0.0027762138588943
 127    0.0014512677506305
 128    -0.014303816649758
 129    0.00046456854480366
 130    0.0024683873354771
 131    -0.030171490642394
 132    -0.0019758450863432
 133    0.0012122974265699
 134    0.0012705372200348
 135    0.00090847814064684
 136     0.000453377796118
 137    -0.00033530809273221
 138    0.0013065246167733
 139    0.0087164793689976
 140    0.0047482647493442
 141    0.00055042745392041
 142    0.0031849937396684
 143    0.0072461347286659
 144    0.0020056896675567
 145    0.0059078278402965
 146    -6.8015731917564e-05
 147    -0.00021844951659577
 148    -7.1315864436683e-05
 149     -3.5796898108e-05
 150    -2.2039248371626e-05
 151    8.1956570835268e-05
 152    0.0027086350736314
 153    -8.7824893681892e-05
 154    1.3982345061452e-05
 155    -0.00055739106628255
 156    -0.0021997520740992
 157    -0.0021501451493514
 158    0.00035387994928011
 159    -0.00022574298093614
 160    0.0004134507394317
 161     0.012761419416809
 162     0.058563054744829
 163    -0.0058193510238528
 164    0.0001526600396284
 165    0.00098606369927494
 166    0.00046267672764161
 167    -7.367021173626e-05
 168    -0.0070329086681203
 169    -0.0028384024512727
 170    0.0006051118008982
 171    -0.0027321521145258
 172    -0.0045422065772891
 173    0.0012711682955578
 174    0.0026834961707081
 175    0.00042595485723753
 176    -0.00026507985702109
 177    -0.0005600796726328
 178    0.00016645072185874
 179    0.00031681837646732
 180    0.0070268582907665
 181     0.022300616757916
 182    0.00030169886917808
 183    0.00031914935074626
 184    -0.0014171735592772
 185    -0.052909157287429
 186    -0.0064223815295803
 187     0.019963594437387
 188    -0.013300442264185
 189    -0.00014447113604779
 190    -0.0007700113512599
 191     0.001128935702878
 192     0.015230304608478
 193    3.0212620958882e-05
 194    0.0037091342199448
 195    0.0033614571688692
 196    -0.0007655714611694
 197    0.0091269775356752
 198    0.0027844436210096
 199    -0.00088881162741983
 200    -0.00064477913073811
 201    -0.00028237766061422
 202    -0.00067580882917567
 203    0.00050974096240292
 204    0.0024699668113741
 205    -0.002405519140839
 206    -0.00034118002389026
 207    -3.3665334159767e-05
 208    -0.00020714785576982
 209    -0.0020874687433675
 210    -0.00035687309057274
 211    -0.00036409347565294
 212    0.00020360558191886
 213    -0.00024441941036944
 214    0.00076828950317155
 215    0.0019385871893105
 216    0.00029002646183466
 217    4.8105266571917e-05
 218    -1.5160946156641e-05
 219    -0.0028987636030412
 220     0.004163022235009
 221    -0.00074851938698677
 222    0.00041640736107532
 223    0.00043792532854821
 224    -0.001716025466902
 225    0.0068856737651527
 226    0.0003065031777755
 227    0.00055101730978153
 228    0.00051281196963757
