[Molden Format]
made by pyscf v[2.1.0]
[Atoms] (AU)
C   1   6     5.80518952178463     0.50358555603085    -2.01447450495210
O   2   8     7.59006230260208    -0.90749372816926    -2.10619425213399
C   3   6     4.06257668629083     0.88716594424731     0.25526042545400
O   4   8     4.92221121062936    -0.52198770903186     2.35899047472156
C   5   6     1.33654470639501     0.10405776904918    -0.51168492220073
H   6   1     0.89689425433657     0.93209418285884    -2.36575758397362
C   7   6    -0.64932879366180     1.09909683939116     1.38333243551311
O   8   8    -0.00969996419739     0.43834276158024     3.94911375031970
C   9   6    -3.35971006179398     0.18432766564233     0.79610193203064
H   10   1    -4.66165577257433     1.18213140530455     2.06285149374097
C   11   6    -4.19715353225174     0.65517938574345    -1.93554631390739
O   12   8    -6.81065988033421     0.10526341431665    -2.27483908066855
H   13   1     5.22581272007586     1.68491382773245    -3.67455355195552
H   14   1     4.03225036144381     2.94522509253638     0.63780524375420
H   15   1     3.63813663980902    -0.25163782047321     3.65830001755813
O   16   8     1.20169573987217    -2.59733407190845    -0.80186748643669
H   17   1    -0.61314809728088     3.17348700084872     1.28243995772258
H   18   1    -0.91242591335437    -1.12422074821725     4.30347519319814
O   19   8    -3.63012231131474    -2.45370354808476     1.43919651920751
H   20   1    -3.01998643747642    -0.49263081368674    -3.22017268475610
H   21   1    -3.94341055687576     2.65625195302014    -2.42398382532372
H   22   1    -7.07185971499772    -1.58002646891459    -1.60535635788826
H   23   1     2.47305434360030    -3.30624782000391     0.32275766317121
H   24   1    -2.30526934045242    -3.31584195953833     0.48480734753104
[GTO]
1 0
 s    8 1.00
                  6665  0.00069158396281299
                  1000  0.0053257961529341
                   228   0.027060721042034
                 64.71    0.10165684614077
                 21.06     0.2745748236174
                 7.495    0.44829431892377
                 2.797    0.28490261071525
                0.5215   0.015194859206082
 s    8 1.00
                  6665  -0.00029326965268655
                  1000  -0.0023180354739745
                   228  -0.011499786038565
                 64.71  -0.046826727009787
                 21.06   -0.12846616875047
                 7.495   -0.30126627246289
                 2.797   -0.25563070233011
                0.5215      1.093793361012
 s    1 1.00
                0.1596                   1
 p    3 1.00
                 9.439   0.056979251590039
                 2.002    0.31320721150073
                0.5456    0.76037674173753
 p    1 1.00
                0.1517                   1
 d    1 1.00
                  0.55                   1

2 0
 s    8 1.00
                 11720  0.00070964594651845
                  1759  0.0054672722921914
                 400.8   0.027823118610189
                 113.7    0.10474773971146
                 37.03    0.28292084635691
                 13.27    0.44849523869833
                 5.025    0.27081688521277
                 1.013    0.01545029160744
 s    8 1.00
                 11720  -0.00031444341168873
                  1759  -0.0024821376810179
                 400.8  -0.012316355381583
                 113.7  -0.050538917343672
                 37.03   -0.13938490331632
                 13.27   -0.32507749481778
                 5.025   -0.22984830758785
                 1.013     1.0953793467883
 s    1 1.00
                0.3023                   1
 p    3 1.00
                  17.7   0.062679166281506
                 3.854    0.33353656587936
                 1.046    0.74123964163973
 p    1 1.00
                0.2753                   1
 d    1 1.00
                 1.185                   1

3 0
 s    8 1.00
                  6665  0.00069158396281299
                  1000  0.0053257961529341
                   228   0.027060721042034
                 64.71    0.10165684614077
                 21.06     0.2745748236174
                 7.495    0.44829431892377
                 2.797    0.28490261071525
                0.5215   0.015194859206082
 s    8 1.00
                  6665  -0.00029326965268655
                  1000  -0.0023180354739745
                   228  -0.011499786038565
                 64.71  -0.046826727009787
                 21.06   -0.12846616875047
                 7.495   -0.30126627246289
                 2.797   -0.25563070233011
                0.5215      1.093793361012
 s    1 1.00
                0.1596                   1
 p    3 1.00
                 9.439   0.056979251590039
                 2.002    0.31320721150073
                0.5456    0.76037674173753
 p    1 1.00
                0.1517                   1
 d    1 1.00
                  0.55                   1

4 0
 s    8 1.00
                 11720  0.00070964594651845
                  1759  0.0054672722921914
                 400.8   0.027823118610189
                 113.7    0.10474773971146
                 37.03    0.28292084635691
                 13.27    0.44849523869833
                 5.025    0.27081688521277
                 1.013    0.01545029160744
 s    8 1.00
                 11720  -0.00031444341168873
                  1759  -0.0024821376810179
                 400.8  -0.012316355381583
                 113.7  -0.050538917343672
                 37.03   -0.13938490331632
                 13.27   -0.32507749481778
                 5.025   -0.22984830758785
                 1.013     1.0953793467883
 s    1 1.00
                0.3023                   1
 p    3 1.00
                  17.7   0.062679166281506
                 3.854    0.33353656587936
                 1.046    0.74123964163973
 p    1 1.00
                0.2753                   1
 d    1 1.00
                 1.185                   1

5 0
 s    8 1.00
                  6665  0.00069158396281299
                  1000  0.0053257961529341
                   228   0.027060721042034
                 64.71    0.10165684614077
                 21.06     0.2745748236174
                 7.495    0.44829431892377
                 2.797    0.28490261071525
                0.5215   0.015194859206082
 s    8 1.00
                  6665  -0.00029326965268655
                  1000  -0.0023180354739745
                   228  -0.011499786038565
                 64.71  -0.046826727009787
                 21.06   -0.12846616875047
                 7.495   -0.30126627246289
                 2.797   -0.25563070233011
                0.5215      1.093793361012
 s    1 1.00
                0.1596                   1
 p    3 1.00
                 9.439   0.056979251590039
                 2.002    0.31320721150073
                0.5456    0.76037674173753
 p    1 1.00
                0.1517                   1
 d    1 1.00
                  0.55                   1

6 0
 s    3 1.00
                 13.01   0.033498726389998
                 1.962    0.23480080117413
                0.4446     0.8136829578829
 s    1 1.00
                 0.122                   1
 p    1 1.00
                 0.727                   1

7 0
 s    8 1.00
                  6665  0.00069158396281299
                  1000  0.0053257961529341
                   228   0.027060721042034
                 64.71    0.10165684614077
                 21.06     0.2745748236174
                 7.495    0.44829431892377
                 2.797    0.28490261071525
                0.5215   0.015194859206082
 s    8 1.00
                  6665  -0.00029326965268655
                  1000  -0.0023180354739745
                   228  -0.011499786038565
                 64.71  -0.046826727009787
                 21.06   -0.12846616875047
                 7.495   -0.30126627246289
                 2.797   -0.25563070233011
                0.5215      1.093793361012
 s    1 1.00
                0.1596                   1
 p    3 1.00
                 9.439   0.056979251590039
                 2.002    0.31320721150073
                0.5456    0.76037674173753
 p    1 1.00
                0.1517                   1
 d    1 1.00
                  0.55                   1

8 0
 s    8 1.00
                 11720  0.00070964594651845
                  1759  0.0054672722921914
                 400.8   0.027823118610189
                 113.7    0.10474773971146
                 37.03    0.28292084635691
                 13.27    0.44849523869833
                 5.025    0.27081688521277
                 1.013    0.01545029160744
 s    8 1.00
                 11720  -0.00031444341168873
                  1759  -0.0024821376810179
                 400.8  -0.012316355381583
                 113.7  -0.050538917343672
                 37.03   -0.13938490331632
                 13.27   -0.32507749481778
                 5.025   -0.22984830758785
                 1.013     1.0953793467883
 s    1 1.00
                0.3023                   1
 p    3 1.00
                  17.7   0.062679166281506
                 3.854    0.33353656587936
                 1.046    0.74123964163973
 p    1 1.00
                0.2753                   1
 d    1 1.00
                 1.185                   1

9 0
 s    8 1.00
                  6665  0.00069158396281299
                  1000  0.0053257961529341
                   228   0.027060721042034
                 64.71    0.10165684614077
                 21.06     0.2745748236174
                 7.495    0.44829431892377
                 2.797    0.28490261071525
                0.5215   0.015194859206082
 s    8 1.00
                  6665  -0.00029326965268655
                  1000  -0.0023180354739745
                   228  -0.011499786038565
                 64.71  -0.046826727009787
                 21.06   -0.12846616875047
                 7.495   -0.30126627246289
                 2.797   -0.25563070233011
                0.5215      1.093793361012
 s    1 1.00
                0.1596                   1
 p    3 1.00
                 9.439   0.056979251590039
                 2.002    0.31320721150073
                0.5456    0.76037674173753
 p    1 1.00
                0.1517                   1
 d    1 1.00
                  0.55                   1

10 0
 s    3 1.00
                 13.01   0.033498726389998
                 1.962    0.23480080117413
                0.4446     0.8136829578829
 s    1 1.00
                 0.122                   1
 p    1 1.00
                 0.727                   1

11 0
 s    8 1.00
                  6665  0.00069158396281299
                  1000  0.0053257961529341
                   228   0.027060721042034
                 64.71    0.10165684614077
                 21.06     0.2745748236174
                 7.495    0.44829431892377
                 2.797    0.28490261071525
                0.5215   0.015194859206082
 s    8 1.00
                  6665  -0.00029326965268655
                  1000  -0.0023180354739745
                   228  -0.011499786038565
                 64.71  -0.046826727009787
                 21.06   -0.12846616875047
                 7.495   -0.30126627246289
                 2.797   -0.25563070233011
                0.5215      1.093793361012
 s    1 1.00
                0.1596                   1
 p    3 1.00
                 9.439   0.056979251590039
                 2.002    0.31320721150073
                0.5456    0.76037674173753
 p    1 1.00
                0.1517                   1
 d    1 1.00
                  0.55                   1

12 0
 s    8 1.00
                 11720  0.00070964594651845
                  1759  0.0054672722921914
                 400.8   0.027823118610189
                 113.7    0.10474773971146
                 37.03    0.28292084635691
                 13.27    0.44849523869833
                 5.025    0.27081688521277
                 1.013    0.01545029160744
 s    8 1.00
                 11720  -0.00031444341168873
                  1759  -0.0024821376810179
                 400.8  -0.012316355381583
                 113.7  -0.050538917343672
                 37.03   -0.13938490331632
                 13.27   -0.32507749481778
                 5.025   -0.22984830758785
                 1.013     1.0953793467883
 s    1 1.00
                0.3023                   1
 p    3 1.00
                  17.7   0.062679166281506
                 3.854    0.33353656587936
                 1.046    0.74123964163973
 p    1 1.00
                0.2753                   1
 d    1 1.00
                 1.185                   1

13 0
 s    3 1.00
                 13.01   0.033498726389998
                 1.962    0.23480080117413
                0.4446     0.8136829578829
 s    1 1.00
                 0.122                   1
 p    1 1.00
                 0.727                   1

14 0
 s    3 1.00
                 13.01   0.033498726389998
                 1.962    0.23480080117413
                0.4446     0.8136829578829
 s    1 1.00
                 0.122                   1
 p    1 1.00
                 0.727                   1

15 0
 s    3 1.00
                 13.01   0.033498726389998
                 1.962    0.23480080117413
                0.4446     0.8136829578829
 s    1 1.00
                 0.122                   1
 p    1 1.00
                 0.727                   1

16 0
 s    8 1.00
                 11720  0.00070964594651845
                  1759  0.0054672722921914
                 400.8   0.027823118610189
                 113.7    0.10474773971146
                 37.03    0.28292084635691
                 13.27    0.44849523869833
                 5.025    0.27081688521277
                 1.013    0.01545029160744
 s    8 1.00
                 11720  -0.00031444341168873
                  1759  -0.0024821376810179
                 400.8  -0.012316355381583
                 113.7  -0.050538917343672
                 37.03   -0.13938490331632
                 13.27   -0.32507749481778
                 5.025   -0.22984830758785
                 1.013     1.0953793467883
 s    1 1.00
                0.3023                   1
 p    3 1.00
                  17.7   0.062679166281506
                 3.854    0.33353656587936
                 1.046    0.74123964163973
 p    1 1.00
                0.2753                   1
 d    1 1.00
                 1.185                   1

17 0
 s    3 1.00
                 13.01   0.033498726389998
                 1.962    0.23480080117413
                0.4446     0.8136829578829
 s    1 1.00
                 0.122                   1
 p    1 1.00
                 0.727                   1

18 0
 s    3 1.00
                 13.01   0.033498726389998
                 1.962    0.23480080117413
                0.4446     0.8136829578829
 s    1 1.00
                 0.122                   1
 p    1 1.00
                 0.727                   1

19 0
 s    8 1.00
                 11720  0.00070964594651845
                  1759  0.0054672722921914
                 400.8   0.027823118610189
                 113.7    0.10474773971146
                 37.03    0.28292084635691
                 13.27    0.44849523869833
                 5.025    0.27081688521277
                 1.013    0.01545029160744
 s    8 1.00
                 11720  -0.00031444341168873
                  1759  -0.0024821376810179
                 400.8  -0.012316355381583
                 113.7  -0.050538917343672
                 37.03   -0.13938490331632
                 13.27   -0.32507749481778
                 5.025   -0.22984830758785
                 1.013     1.0953793467883
 s    1 1.00
                0.3023                   1
 p    3 1.00
                  17.7   0.062679166281506
                 3.854    0.33353656587936
                 1.046    0.74123964163973
 p    1 1.00
                0.2753                   1
 d    1 1.00
                 1.185                   1

20 0
 s    3 1.00
                 13.01   0.033498726389998
                 1.962    0.23480080117413
                0.4446     0.8136829578829
 s    1 1.00
                 0.122                   1
 p    1 1.00
                 0.727                   1

21 0
 s    3 1.00
                 13.01   0.033498726389998
                 1.962    0.23480080117413
                0.4446     0.8136829578829
 s    1 1.00
                 0.122                   1
 p    1 1.00
                 0.727                   1

22 0
 s    3 1.00
                 13.01   0.033498726389998
                 1.962    0.23480080117413
                0.4446     0.8136829578829
 s    1 1.00
                 0.122                   1
 p    1 1.00
                 0.727                   1

23 0
 s    3 1.00
                 13.01   0.033498726389998
                 1.962    0.23480080117413
                0.4446     0.8136829578829
 s    1 1.00
                 0.122                   1
 p    1 1.00
                 0.727                   1

24 0
 s    3 1.00
                 13.01   0.033498726389998
                 1.962    0.23480080117413
                0.4446     0.8136829578829
 s    1 1.00
                 0.122                   1
 p    1 1.00
                 0.727                   1

[5d]
[7f]
[9g]

[MO]
 Sym= A
 Ene=     -20.5989454
 Spin= Alpha
 Occup=    2.00000
   1    -0.0043356641457436
   2    -0.0070137033908863
   3       0.0576476182595
   4    -0.008012650367571
   5    -0.015154313965815
   6     0.050179530395655
   7    -0.048910351424108
   8     0.010152284100991
   9     0.067324902350903
  10    -0.001708334572952
  11     0.050411453530178
  12    -0.040840037198669
  13    -0.021116802216391
  14    -0.0074421959638553
  15    -0.0015797750849584
  16     -0.00113857414656
  17     0.018814103647178
  18     -0.10749274576129
  19     -0.17760981618621
  20       0.6026707714334
  21    -0.079293659841353
  22      -0.1251093689668
  23      0.42934735411012
  24    0.0010192408859679
  25    -0.014972759191969
  26     0.011445573046773
  27    0.0061293676928887
  28    0.0020083168304462
  29    0.0040376716660286
  30    -0.035191526883771
  31     -0.16920469746566
  32    -0.051382897404384
  33     0.016829409249572
  34     0.054171311137024
  35    -0.066481286035354
  36     0.014272484011344
  37     0.095457858572562
  38    0.0029154158824962
  39    -0.00076260120579824
  40    -0.0020870943658108
  41    -0.00066926989972127
  42    0.0011506918969418
  43    -0.00088594753442556
  44    -0.0050219712953959
  45    -0.0023230446061498
  46    -0.0040857883730055
  47    0.0028431138973765
  48    0.0029043652375776
  49     0.016167228769931
  50    -0.0031565690029414
  51    -0.015301181606488
  52    -0.0010063544154624
  53    -0.00067940912216766
  54    0.0011204635315716
  55    0.00037398780207464
  56    -0.00061336740120375
  57    0.00018865000746175
  58    0.0023454649595398
  59     0.011100891593615
  60    0.0087921777937787
  61    0.0025706251612495
  62    0.0071652971735685
  63     0.020495099357578
  64     0.019239824405002
  65     0.011905527292207
  66    0.00095257942632668
  67    0.0028284708996387
  68    0.00090289943176257
  69    -0.0020689896369169
  70    0.0018942172192653
  71    0.0019687390413919
  72      0.01249642634043
  73    0.0007240275724202
  74    -0.00068861961936357
  75    -0.00015803471495314
  76    0.00086105009756765
  77    -0.0025642155233778
  78    -0.016283445701477
  79    -0.0044563134466455
  80    0.0010423473067789
  81    0.0047569101378087
  82    -0.022924417818937
  83    -0.0043667431620105
  84    0.0057449291414168
  85    -0.00082545961755616
  86    0.00036350098637751
  87    0.00037084133031054
  88    0.00063072986813357
  89    0.00024455196357203
  90    6.5601266618166e-05
  91    -0.00072138930758385
  92    -0.00070715458084636
  93    -0.0011070570686787
  94    -0.00044829770176684
  95    0.0013676103148804
  96    -0.00093212218142868
  97    0.0004974265841986
  98    0.0012775994874707
  99    -0.00013880373685953
 100    -4.0074634065378e-05
 101    -6.5820364416576e-05
 102    4.4588262071509e-05
 103    0.00011403371501325
 104    -0.00014202190499826
 105    0.0018173602494037
 106    -0.0021123726866238
 107     0.003784313437975
 108    0.0014105129188007
 109    0.00061978696903983
 110     0.001639098343081
 111    -0.0053088465308726
 112    -0.0053964273196459
 113    0.00017676591888756
 114    0.00031092580275746
 115    -0.0001729961975055
 116    -0.00053661027285819
 117    0.00015149887083468
 118    -0.00069614556250963
 119    -0.0003430358263849
 120    0.0002047551305798
 121    7.4393287883447e-05
 122    -2.5629508074362e-06
 123    0.00018962386935242
 124    0.00057499130939726
 125    -0.0031013197609127
 126    0.00028746250556051
 127    -7.9787169197971e-05
 128    0.00019121081387574
 129    -0.0019646609036941
 130    0.0021721945137353
 131    0.00016557492524366
 132    5.3974297140441e-05
 133    0.00014954743416885
 134    0.00018372204951308
 135    5.8574386863589e-05
 136    0.00011652369545249
 137    6.8459903288201e-05
 138    0.00021175423566133
 139    -0.0001685948555456
 140    9.816532342694e-05
 141    0.00011302880751009
 142    0.00026092679522197
 143    -4.9337166900106e-05
 144    -0.00019329244224474
 145    -3.0642695941372e-05
 146    -1.4613495612797e-05
 147    -9.1326667060337e-06
 148    -9.6638952799926e-06
 149    2.0142385429507e-06
 150    -1.6457614187893e-05
 151     0.078818692029338
 152      0.11041032247998
 153    0.0017577152362016
 154    0.00077779580928099
 155    -0.0054363143152501
 156    0.0095469987283202
 157     0.018299934528279
 158    -0.0025904206327236
 159     6.09876014176e-06
 160    0.00077311429462023
 161    0.0081128528389346
 162    -0.005655271953069
 163    0.0014423055341876
 164    0.0002646569393644
 165    -0.0021934101842415
 166    -0.00023672958304011
 167    0.00021503855709689
 168    0.0041964038260677
 169    -0.0011528882121106
 170    0.0030028100025998
 171    -0.00030700692017187
 172    -0.0038065472288284
 173    0.0087390521922925
 174    -0.003147185485239
 175    0.00011046592878299
 176    -0.00028366386825448
 177    0.00024747240473735
 178    -0.00026442243328295
 179    0.00038235881348019
 180    -0.00073812431800602
 181    0.0017109714164733
 182    0.00050624619232097
 183    0.00026189624711552
 184    0.00027492360254996
 185     0.001315885934736
 186    -0.0017769602972003
 187    0.00010258356611488
 188    -6.0947391713479e-05
 189    0.00013571753171672
 190    0.0001999756594017
 191    0.00029722871754201
 192    -0.0020200937085048
 193    -0.00039973671781989
 194    -0.00040639530841101
 195    -0.00030105596376908
 196    -0.0008139842137669
 197    -0.001638240141996
 198    0.00063960863412254
 199    2.8576969425591e-05
 200     2.80089839612e-05
 201    6.4014333091399e-05
 202    9.6920972510501e-06
 203    5.9568634238369e-05
 204    0.00010314264946772
 205    0.0026455540522127
 206    -2.2063635433709e-05
 207    4.8412781530253e-05
 208    0.00015324714098489
 209    0.00013579973485223
 210    -0.0020508086019622
 211    4.8958454752794e-05
 212    -2.1507041060324e-05
 213    -2.228249632418e-05
 214    6.0658586984705e-05
 215    -0.00050309154887313
 216    -9.0123255112035e-06
 217    -1.6969854676857e-05
 218    -5.4283794965221e-06
 219    -0.0023301262204648
 220     0.014855745647251
 221    -0.00043437828748051
 222    0.00074698526008622
 223    -0.0012201487561196
 224    -7.5234760316474e-05
 225    -0.0016952635995859
 226    -4.107196579881e-05
 227    -2.814226152353e-06
 228    -7.1675328046355e-05
