[Molden Format]
made by pyscf v[2.1.0]
[Atoms] (AU)
C   1   6     5.80518952178463     0.50358555603085    -2.01447450495210
O   2   8     7.59006230260208    -0.90749372816926    -2.10619425213399
C   3   6     4.06257668629083     0.88716594424731     0.25526042545400
O   4   8     4.92221121062936    -0.52198770903186     2.35899047472156
C   5   6     1.33654470639501     0.10405776904918    -0.51168492220073
H   6   1     0.89689425433657     0.93209418285884    -2.36575758397362
C   7   6    -0.64932879366180     1.09909683939116     1.38333243551311
O   8   8    -0.00969996419739     0.43834276158024     3.94911375031970
C   9   6    -3.35971006179398     0.18432766564233     0.79610193203064
H   10   1    -4.66165577257433     1.18213140530455     2.06285149374097
C   11   6    -4.19715353225174     0.65517938574345    -1.93554631390739
O   12   8    -6.81065988033421     0.10526341431665    -2.27483908066855
H   13   1     5.22581272007586     1.68491382773245    -3.67455355195552
H   14   1     4.03225036144381     2.94522509253638     0.63780524375420
H   15   1     3.63813663980902    -0.25163782047321     3.65830001755813
O   16   8     1.20169573987217    -2.59733407190845    -0.80186748643669
H   17   1    -0.61314809728088     3.17348700084872     1.28243995772258
H   18   1    -0.91242591335437    -1.12422074821725     4.30347519319814
O   19   8    -3.63012231131474    -2.45370354808476     1.43919651920751
H   20   1    -3.01998643747642    -0.49263081368674    -3.22017268475610
H   21   1    -3.94341055687576     2.65625195302014    -2.42398382532372
H   22   1    -7.07185971499772    -1.58002646891459    -1.60535635788826
H   23   1     2.47305434360030    -3.30624782000391     0.32275766317121
H   24   1    -2.30526934045242    -3.31584195953833     0.48480734753104
[GTO]
1 0
 s    8 1.00
                  6665  0.00069158396281299
                  1000  0.0053257961529341
                   228   0.027060721042034
                 64.71    0.10165684614077
                 21.06     0.2745748236174
                 7.495    0.44829431892377
                 2.797    0.28490261071525
                0.5215   0.015194859206082
 s    8 1.00
                  6665  -0.00029326965268655
                  1000  -0.0023180354739745
                   228  -0.011499786038565
                 64.71  -0.046826727009787
                 21.06   -0.12846616875047
                 7.495   -0.30126627246289
                 2.797   -0.25563070233011
                0.5215      1.093793361012
 s    1 1.00
                0.1596                   1
 p    3 1.00
                 9.439   0.056979251590039
                 2.002    0.31320721150073
                0.5456    0.76037674173753
 p    1 1.00
                0.1517                   1
 d    1 1.00
                  0.55                   1

2 0
 s    8 1.00
                 11720  0.00070964594651845
                  1759  0.0054672722921914
                 400.8   0.027823118610189
                 113.7    0.10474773971146
                 37.03    0.28292084635691
                 13.27    0.44849523869833
                 5.025    0.27081688521277
                 1.013    0.01545029160744
 s    8 1.00
                 11720  -0.00031444341168873
                  1759  -0.0024821376810179
                 400.8  -0.012316355381583
                 113.7  -0.050538917343672
                 37.03   -0.13938490331632
                 13.27   -0.32507749481778
                 5.025   -0.22984830758785
                 1.013     1.0953793467883
 s    1 1.00
                0.3023                   1
 p    3 1.00
                  17.7   0.062679166281506
                 3.854    0.33353656587936
                 1.046    0.74123964163973
 p    1 1.00
                0.2753                   1
 d    1 1.00
                 1.185                   1

3 0
 s    8 1.00
                  6665  0.00069158396281299
                  1000  0.0053257961529341
                   228   0.027060721042034
                 64.71    0.10165684614077
                 21.06     0.2745748236174
                 7.495    0.44829431892377
                 2.797    0.28490261071525
                0.5215   0.015194859206082
 s    8 1.00
                  6665  -0.00029326965268655
                  1000  -0.0023180354739745
                   228  -0.011499786038565
                 64.71  -0.046826727009787
                 21.06   -0.12846616875047
                 7.495   -0.30126627246289
                 2.797   -0.25563070233011
                0.5215      1.093793361012
 s    1 1.00
                0.1596                   1
 p    3 1.00
                 9.439   0.056979251590039
                 2.002    0.31320721150073
                0.5456    0.76037674173753
 p    1 1.00
                0.1517                   1
 d    1 1.00
                  0.55                   1

4 0
 s    8 1.00
                 11720  0.00070964594651845
                  1759  0.0054672722921914
                 400.8   0.027823118610189
                 113.7    0.10474773971146
                 37.03    0.28292084635691
                 13.27    0.44849523869833
                 5.025    0.27081688521277
                 1.013    0.01545029160744
 s    8 1.00
                 11720  -0.00031444341168873
                  1759  -0.0024821376810179
                 400.8  -0.012316355381583
                 113.7  -0.050538917343672
                 37.03   -0.13938490331632
                 13.27   -0.32507749481778
                 5.025   -0.22984830758785
                 1.013     1.0953793467883
 s    1 1.00
                0.3023                   1
 p    3 1.00
                  17.7   0.062679166281506
                 3.854    0.33353656587936
                 1.046    0.74123964163973
 p    1 1.00
                0.2753                   1
 d    1 1.00
                 1.185                   1

5 0
 s    8 1.00
                  6665  0.00069158396281299
                  1000  0.0053257961529341
                   228   0.027060721042034
                 64.71    0.10165684614077
                 21.06     0.2745748236174
                 7.495    0.44829431892377
                 2.797    0.28490261071525
                0.5215   0.015194859206082
 s    8 1.00
                  6665  -0.00029326965268655
                  1000  -0.0023180354739745
                   228  -0.011499786038565
                 64.71  -0.046826727009787
                 21.06   -0.12846616875047
                 7.495   -0.30126627246289
                 2.797   -0.25563070233011
                0.5215      1.093793361012
 s    1 1.00
                0.1596                   1
 p    3 1.00
                 9.439   0.056979251590039
                 2.002    0.31320721150073
                0.5456    0.76037674173753
 p    1 1.00
                0.1517                   1
 d    1 1.00
                  0.55                   1

6 0
 s    3 1.00
                 13.01   0.033498726389998
                 1.962    0.23480080117413
                0.4446     0.8136829578829
 s    1 1.00
                 0.122                   1
 p    1 1.00
                 0.727                   1

7 0
 s    8 1.00
                  6665  0.00069158396281299
                  1000  0.0053257961529341
                   228   0.027060721042034
                 64.71    0.10165684614077
                 21.06     0.2745748236174
                 7.495    0.44829431892377
                 2.797    0.28490261071525
                0.5215   0.015194859206082
 s    8 1.00
                  6665  -0.00029326965268655
                  1000  -0.0023180354739745
                   228  -0.011499786038565
                 64.71  -0.046826727009787
                 21.06   -0.12846616875047
                 7.495   -0.30126627246289
                 2.797   -0.25563070233011
                0.5215      1.093793361012
 s    1 1.00
                0.1596                   1
 p    3 1.00
                 9.439   0.056979251590039
                 2.002    0.31320721150073
                0.5456    0.76037674173753
 p    1 1.00
                0.1517                   1
 d    1 1.00
                  0.55                   1

8 0
 s    8 1.00
                 11720  0.00070964594651845
                  1759  0.0054672722921914
                 400.8   0.027823118610189
                 113.7    0.10474773971146
                 37.03    0.28292084635691
                 13.27    0.44849523869833
                 5.025    0.27081688521277
                 1.013    0.01545029160744
 s    8 1.00
                 11720  -0.00031444341168873
                  1759  -0.0024821376810179
                 400.8  -0.012316355381583
                 113.7  -0.050538917343672
                 37.03   -0.13938490331632
                 13.27   -0.32507749481778
                 5.025   -0.22984830758785
                 1.013     1.0953793467883
 s    1 1.00
                0.3023                   1
 p    3 1.00
                  17.7   0.062679166281506
                 3.854    0.33353656587936
                 1.046    0.74123964163973
 p    1 1.00
                0.2753                   1
 d    1 1.00
                 1.185                   1

9 0
 s    8 1.00
                  6665  0.00069158396281299
                  1000  0.0053257961529341
                   228   0.027060721042034
                 64.71    0.10165684614077
                 21.06     0.2745748236174
                 7.495    0.44829431892377
                 2.797    0.28490261071525
                0.5215   0.015194859206082
 s    8 1.00
                  6665  -0.00029326965268655
                  1000  -0.0023180354739745
                   228  -0.011499786038565
                 64.71  -0.046826727009787
                 21.06   -0.12846616875047
                 7.495   -0.30126627246289
                 2.797   -0.25563070233011
                0.5215      1.093793361012
 s    1 1.00
                0.1596                   1
 p    3 1.00
                 9.439   0.056979251590039
                 2.002    0.31320721150073
                0.5456    0.76037674173753
 p    1 1.00
                0.1517                   1
 d    1 1.00
                  0.55                   1

10 0
 s    3 1.00
                 13.01   0.033498726389998
                 1.962    0.23480080117413
                0.4446     0.8136829578829
 s    1 1.00
                 0.122                   1
 p    1 1.00
                 0.727                   1

11 0
 s    8 1.00
                  6665  0.00069158396281299
                  1000  0.0053257961529341
                   228   0.027060721042034
                 64.71    0.10165684614077
                 21.06     0.2745748236174
                 7.495    0.44829431892377
                 2.797    0.28490261071525
                0.5215   0.015194859206082
 s    8 1.00
                  6665  -0.00029326965268655
                  1000  -0.0023180354739745
                   228  -0.011499786038565
                 64.71  -0.046826727009787
                 21.06   -0.12846616875047
                 7.495   -0.30126627246289
                 2.797   -0.25563070233011
                0.5215      1.093793361012
 s    1 1.00
                0.1596                   1
 p    3 1.00
                 9.439   0.056979251590039
                 2.002    0.31320721150073
                0.5456    0.76037674173753
 p    1 1.00
                0.1517                   1
 d    1 1.00
                  0.55                   1

12 0
 s    8 1.00
                 11720  0.00070964594651845
                  1759  0.0054672722921914
                 400.8   0.027823118610189
                 113.7    0.10474773971146
                 37.03    0.28292084635691
                 13.27    0.44849523869833
                 5.025    0.27081688521277
                 1.013    0.01545029160744
 s    8 1.00
                 11720  -0.00031444341168873
                  1759  -0.0024821376810179
                 400.8  -0.012316355381583
                 113.7  -0.050538917343672
                 37.03   -0.13938490331632
                 13.27   -0.32507749481778
                 5.025   -0.22984830758785
                 1.013     1.0953793467883
 s    1 1.00
                0.3023                   1
 p    3 1.00
                  17.7   0.062679166281506
                 3.854    0.33353656587936
                 1.046    0.74123964163973
 p    1 1.00
                0.2753                   1
 d    1 1.00
                 1.185                   1

13 0
 s    3 1.00
                 13.01   0.033498726389998
                 1.962    0.23480080117413
                0.4446     0.8136829578829
 s    1 1.00
                 0.122                   1
 p    1 1.00
                 0.727                   1

14 0
 s    3 1.00
                 13.01   0.033498726389998
                 1.962    0.23480080117413
                0.4446     0.8136829578829
 s    1 1.00
                 0.122                   1
 p    1 1.00
                 0.727                   1

15 0
 s    3 1.00
                 13.01   0.033498726389998
                 1.962    0.23480080117413
                0.4446     0.8136829578829
 s    1 1.00
                 0.122                   1
 p    1 1.00
                 0.727                   1

16 0
 s    8 1.00
                 11720  0.00070964594651845
                  1759  0.0054672722921914
                 400.8   0.027823118610189
                 113.7    0.10474773971146
                 37.03    0.28292084635691
                 13.27    0.44849523869833
                 5.025    0.27081688521277
                 1.013    0.01545029160744
 s    8 1.00
                 11720  -0.00031444341168873
                  1759  -0.0024821376810179
                 400.8  -0.012316355381583
                 113.7  -0.050538917343672
                 37.03   -0.13938490331632
                 13.27   -0.32507749481778
                 5.025   -0.22984830758785
                 1.013     1.0953793467883
 s    1 1.00
                0.3023                   1
 p    3 1.00
                  17.7   0.062679166281506
                 3.854    0.33353656587936
                 1.046    0.74123964163973
 p    1 1.00
                0.2753                   1
 d    1 1.00
                 1.185                   1

17 0
 s    3 1.00
                 13.01   0.033498726389998
                 1.962    0.23480080117413
                0.4446     0.8136829578829
 s    1 1.00
                 0.122                   1
 p    1 1.00
                 0.727                   1

18 0
 s    3 1.00
                 13.01   0.033498726389998
                 1.962    0.23480080117413
                0.4446     0.8136829578829
 s    1 1.00
                 0.122                   1
 p    1 1.00
                 0.727                   1

19 0
 s    8 1.00
                 11720  0.00070964594651845
                  1759  0.0054672722921914
                 400.8   0.027823118610189
                 113.7    0.10474773971146
                 37.03    0.28292084635691
                 13.27    0.44849523869833
                 5.025    0.27081688521277
                 1.013    0.01545029160744
 s    8 1.00
                 11720  -0.00031444341168873
                  1759  -0.0024821376810179
                 400.8  -0.012316355381583
                 113.7  -0.050538917343672
                 37.03   -0.13938490331632
                 13.27   -0.32507749481778
                 5.025   -0.22984830758785
                 1.013     1.0953793467883
 s    1 1.00
                0.3023                   1
 p    3 1.00
                  17.7   0.062679166281506
                 3.854    0.33353656587936
                 1.046    0.74123964163973
 p    1 1.00
                0.2753                   1
 d    1 1.00
                 1.185                   1

20 0
 s    3 1.00
                 13.01   0.033498726389998
                 1.962    0.23480080117413
                0.4446     0.8136829578829
 s    1 1.00
                 0.122                   1
 p    1 1.00
                 0.727                   1

21 0
 s    3 1.00
                 13.01   0.033498726389998
                 1.962    0.23480080117413
                0.4446     0.8136829578829
 s    1 1.00
                 0.122                   1
 p    1 1.00
                 0.727                   1

22 0
 s    3 1.00
                 13.01   0.033498726389998
                 1.962    0.23480080117413
                0.4446     0.8136829578829
 s    1 1.00
                 0.122                   1
 p    1 1.00
                 0.727                   1

23 0
 s    3 1.00
                 13.01   0.033498726389998
                 1.962    0.23480080117413
                0.4446     0.8136829578829
 s    1 1.00
                 0.122                   1
 p    1 1.00
                 0.727                   1

24 0
 s    3 1.00
                 13.01   0.033498726389998
                 1.962    0.23480080117413
                0.4446     0.8136829578829
 s    1 1.00
                 0.122                   1
 p    1 1.00
                 0.727                   1

[5d]
[7f]
[9g]

[MO]
 Sym= A
 Ene=     -20.5989454
 Spin= Alpha
 Occup=    2.00000
   1    0.00070421463966889
   2    -0.016108643730903
   3    -0.051209539265736
   4    -0.0039559754039761
   5    -0.028482869287843
   6    -0.034880581563443
   7     0.022747316726475
   8    0.0026118502937648
   9    -0.020017689472598
  10    -0.0075029242478155
  11    -0.004864446783654
  12    -0.0035838867678898
  13      0.01193621299469
  14    0.0012507864270227
  15    -0.00027237368977223
  16    0.0044942005143432
  17     0.010073341661177
  18    0.0046371600454878
  19     0.021329208552419
  20    0.0093672487468616
  21    0.0013719716458833
  22     0.016622425132422
  23     0.016940711281529
  24    -0.00011874681279648
  25    0.00031958664440947
  26    -0.00024001511995391
  27    0.00069524158117709
  28    -8.7784801169488e-05
  29    -0.0068532551381363
  30      0.20038365830522
  31      0.12495972104914
  32     -0.34415593343457
  33     -0.11565262115958
  34    -0.079767704161315
  35     -0.13096339423439
  36     -0.05964692380496
  37    -0.017847438622104
  38    -0.0095570135293556
  39     0.014328615290285
  40    0.0048696882544681
  41     0.023191142406759
  42     0.012486400724426
  43    0.0010293934845968
  44    -0.0063134428487731
  45    -0.031832546138263
  46     0.016528868283541
  47    -0.010204299504534
  48     0.015476529090154
  49     0.047176493994557
  50    0.0023956542636714
  51     0.026950605918607
  52    0.00065819122447818
  53    0.0055848496316978
  54    0.00087501674035923
  55    0.0026839939866907
  56    -0.0020819769014797
  57     -0.01032360511187
  58      0.20033120704685
  59       0.2064389985386
  60      0.34686226152514
  61     0.079017669377542
  62      0.10483414830693
  63       0.2039460507747
  64     0.038487858047302
  65     0.054891458751346
  66    -0.014713617565684
  67     0.013468262828916
  68    0.0051975259645706
  69     0.024671551030095
  70     0.015418844743535
  71    -0.022737612453264
  72    -0.041931870785513
  73    0.0069377891764874
  74    -0.00028971664911687
  75    0.0041085795717006
  76    0.00068250667643703
  77    -0.012785219795479
  78    -0.024617398605824
  79    -0.015120808515419
  80    0.0097087766705324
  81     0.026585339211795
  82    -0.041215252210688
  83    0.0065146429549921
  84       0.0150216058046
  85    -0.0088452134984466
  86    -0.0024029882029568
  87    -0.0025740950773659
  88    0.0094935849778347
  89    -0.00013564697068713
  90    0.00085767548404818
  91    -0.00050202417292252
  92    -0.0068001860148956
  93    0.0023820384833287
  94    -0.0022335617286737
  95    0.0078041287695562
  96    -0.00089140211481922
  97    5.1750535945382e-05
  98      0.00962508719597
  99    -0.00029053344077605
 100    0.00032891190817173
 101    -0.00045446014149874
 102    0.00019278472999365
 103    -0.00016535050907608
 104    -0.00050244084076059
 105     0.008597582832571
 106     0.012276558841375
 107     0.018079543502619
 108    0.0065691623254582
 109    0.0034848865297616
 110      0.02082432591567
 111    -0.0088164212652361
 112    -0.011383379425688
 113    0.00024680388651797
 114    0.00086853575973162
 115    -0.00035335725964167
 116    -0.00053205164917227
 117    6.8254205167289e-05
 118    -0.0050753483336576
 119    -0.0028077907160601
 120    0.00086387744198602
 121    0.00055732965956119
 122    0.00038625592783043
 123    0.00010456210837316
 124    0.0028075876145092
 125    -0.0077261243460407
 126    0.0019677629167045
 127    -0.00076113230112866
 128    -0.0013032672652321
 129    0.0065078231650678
 130    0.0098792309371745
 131    0.0050647281102398
 132    0.00077420123001134
 133    0.00092929917831469
 134    0.0002657082162396
 135    -0.00070647363459958
 136    0.00013009058984383
 137    -0.00070777684969068
 138    -0.0016355573345706
 139     0.006589007112856
 140    -0.0013602826892395
 141    -6.538249430422e-06
 142    0.0009722254232916
 143    0.0018425793501587
 144    0.00034112978109136
 145    0.00095055714416689
 146    -0.00015387027094698
 147    -5.8634765399891e-05
 148    -7.9539459285069e-05
 149    7.5244813515828e-05
 150    2.8117541481811e-05
 151    0.0010947852512293
 152    0.0025877142356078
 153    -0.00010517655403498
 154    -0.001401194665674
 155    -0.00082687732082619
 156    -0.022231140934923
 157    -0.041220781337852
 158    -0.0077186910040395
 159    -0.0055529935397904
 160    -0.0014903771234637
 161    -0.010021604092543
 162    -0.0023315140062359
 163     0.001911307046213
 164    1.3675060483048e-05
 165    -6.8481015253512e-05
 166    -0.00076284312869685
 167    -0.0087826753290239
 168    -0.014152525044667
 169    -0.0098929588123554
 170     -0.02232849819982
 171    -0.004657053047817
 172    -0.037427701313199
 173    -0.036667386741701
 174    -0.010103038384161
 175    -0.0010532424038908
 176    -0.00025020348231241
 177    0.0024368631247041
 178    -0.0013316686776994
 179    0.0063582518425936
 180    -0.0055183265928766
 181    -0.0059818210913145
 182    -0.00083318489606423
 183    0.00090926112085987
 184    0.0012366607124755
 185    0.0029297310543388
 186    -0.0044017441690003
 187    0.0010115684872004
 188    4.2287572530001e-06
 189    -0.00011582739334999
 190    0.00089167296703959
 191    0.0005063938858111
 192    -0.012688504949731
 193    -0.0030238418079079
 194    -0.00050945152764489
 195    0.00092624535914389
 196    -0.0054217155303073
 197    0.0018666975248331
 198     0.003709202453107
 199    -3.6934836842632e-05
 200    0.00015496100771883
 201    7.8770041511627e-05
 202    -0.00022313999021781
 203    0.00040753494769137
 204    0.00086867141297309
 205     0.018836293623265
 206    -0.0003267593219228
 207    0.0001881707290315
 208    0.0010714467250671
 209    0.00012948076428417
 210    -0.0038995272344205
 211    -0.00064323091035919
 212    -0.00025955133085885
 213    -0.00030263713206029
 214    0.00038001299604315
 215    0.00079309530665318
 216    -6.7780374043303e-05
 217    -0.00022006316035203
 218    0.00017040763342243
 219    -0.018417596218657
 220    -0.030890230090206
 221    -0.0023504053209852
 222    -0.0019814639864184
 223    -0.0014475736435727
 224    0.0005872139539189
 225     0.017051760824741
 226    0.00032491474793857
 227    0.00035922945883009
 228    6.1358381464805e-05
