[Molden Format]
made by pyscf v[2.1.0]
[Atoms] (AU)
C   1   6     5.80518952178463     0.50358555603085    -2.01447450495210
O   2   8     7.59006230260208    -0.90749372816926    -2.10619425213399
C   3   6     4.06257668629083     0.88716594424731     0.25526042545400
O   4   8     4.92221121062936    -0.52198770903186     2.35899047472156
C   5   6     1.33654470639501     0.10405776904918    -0.51168492220073
H   6   1     0.89689425433657     0.93209418285884    -2.36575758397362
C   7   6    -0.64932879366180     1.09909683939116     1.38333243551311
O   8   8    -0.00969996419739     0.43834276158024     3.94911375031970
C   9   6    -3.35971006179398     0.18432766564233     0.79610193203064
H   10   1    -4.66165577257433     1.18213140530455     2.06285149374097
C   11   6    -4.19715353225174     0.65517938574345    -1.93554631390739
O   12   8    -6.81065988033421     0.10526341431665    -2.27483908066855
H   13   1     5.22581272007586     1.68491382773245    -3.67455355195552
H   14   1     4.03225036144381     2.94522509253638     0.63780524375420
H   15   1     3.63813663980902    -0.25163782047321     3.65830001755813
O   16   8     1.20169573987217    -2.59733407190845    -0.80186748643669
H   17   1    -0.61314809728088     3.17348700084872     1.28243995772258
H   18   1    -0.91242591335437    -1.12422074821725     4.30347519319814
O   19   8    -3.63012231131474    -2.45370354808476     1.43919651920751
H   20   1    -3.01998643747642    -0.49263081368674    -3.22017268475610
H   21   1    -3.94341055687576     2.65625195302014    -2.42398382532372
H   22   1    -7.07185971499772    -1.58002646891459    -1.60535635788826
H   23   1     2.47305434360030    -3.30624782000391     0.32275766317121
H   24   1    -2.30526934045242    -3.31584195953833     0.48480734753104
[GTO]
1 0
 s    8 1.00
                  6665  0.00069158396281299
                  1000  0.0053257961529341
                   228   0.027060721042034
                 64.71    0.10165684614077
                 21.06     0.2745748236174
                 7.495    0.44829431892377
                 2.797    0.28490261071525
                0.5215   0.015194859206082
 s    8 1.00
                  6665  -0.00029326965268655
                  1000  -0.0023180354739745
                   228  -0.011499786038565
                 64.71  -0.046826727009787
                 21.06   -0.12846616875047
                 7.495   -0.30126627246289
                 2.797   -0.25563070233011
                0.5215      1.093793361012
 s    1 1.00
                0.1596                   1
 p    3 1.00
                 9.439   0.056979251590039
                 2.002    0.31320721150073
                0.5456    0.76037674173753
 p    1 1.00
                0.1517                   1
 d    1 1.00
                  0.55                   1

2 0
 s    8 1.00
                 11720  0.00070964594651845
                  1759  0.0054672722921914
                 400.8   0.027823118610189
                 113.7    0.10474773971146
                 37.03    0.28292084635691
                 13.27    0.44849523869833
                 5.025    0.27081688521277
                 1.013    0.01545029160744
 s    8 1.00
                 11720  -0.00031444341168873
                  1759  -0.0024821376810179
                 400.8  -0.012316355381583
                 113.7  -0.050538917343672
                 37.03   -0.13938490331632
                 13.27   -0.32507749481778
                 5.025   -0.22984830758785
                 1.013     1.0953793467883
 s    1 1.00
                0.3023                   1
 p    3 1.00
                  17.7   0.062679166281506
                 3.854    0.33353656587936
                 1.046    0.74123964163973
 p    1 1.00
                0.2753                   1
 d    1 1.00
                 1.185                   1

3 0
 s    8 1.00
                  6665  0.00069158396281299
                  1000  0.0053257961529341
                   228   0.027060721042034
                 64.71    0.10165684614077
                 21.06     0.2745748236174
                 7.495    0.44829431892377
                 2.797    0.28490261071525
                0.5215   0.015194859206082
 s    8 1.00
                  6665  -0.00029326965268655
                  1000  -0.0023180354739745
                   228  -0.011499786038565
                 64.71  -0.046826727009787
                 21.06   -0.12846616875047
                 7.495   -0.30126627246289
                 2.797   -0.25563070233011
                0.5215      1.093793361012
 s    1 1.00
                0.1596                   1
 p    3 1.00
                 9.439   0.056979251590039
                 2.002    0.31320721150073
                0.5456    0.76037674173753
 p    1 1.00
                0.1517                   1
 d    1 1.00
                  0.55                   1

4 0
 s    8 1.00
                 11720  0.00070964594651845
                  1759  0.0054672722921914
                 400.8   0.027823118610189
                 113.7    0.10474773971146
                 37.03    0.28292084635691
                 13.27    0.44849523869833
                 5.025    0.27081688521277
                 1.013    0.01545029160744
 s    8 1.00
                 11720  -0.00031444341168873
                  1759  -0.0024821376810179
                 400.8  -0.012316355381583
                 113.7  -0.050538917343672
                 37.03   -0.13938490331632
                 13.27   -0.32507749481778
                 5.025   -0.22984830758785
                 1.013     1.0953793467883
 s    1 1.00
                0.3023                   1
 p    3 1.00
                  17.7   0.062679166281506
                 3.854    0.33353656587936
                 1.046    0.74123964163973
 p    1 1.00
                0.2753                   1
 d    1 1.00
                 1.185                   1

5 0
 s    8 1.00
                  6665  0.00069158396281299
                  1000  0.0053257961529341
                   228   0.027060721042034
                 64.71    0.10165684614077
                 21.06     0.2745748236174
                 7.495    0.44829431892377
                 2.797    0.28490261071525
                0.5215   0.015194859206082
 s    8 1.00
                  6665  -0.00029326965268655
                  1000  -0.0023180354739745
                   228  -0.011499786038565
                 64.71  -0.046826727009787
                 21.06   -0.12846616875047
                 7.495   -0.30126627246289
                 2.797   -0.25563070233011
                0.5215      1.093793361012
 s    1 1.00
                0.1596                   1
 p    3 1.00
                 9.439   0.056979251590039
                 2.002    0.31320721150073
                0.5456    0.76037674173753
 p    1 1.00
                0.1517                   1
 d    1 1.00
                  0.55                   1

6 0
 s    3 1.00
                 13.01   0.033498726389998
                 1.962    0.23480080117413
                0.4446     0.8136829578829
 s    1 1.00
                 0.122                   1
 p    1 1.00
                 0.727                   1

7 0
 s    8 1.00
                  6665  0.00069158396281299
                  1000  0.0053257961529341
                   228   0.027060721042034
                 64.71    0.10165684614077
                 21.06     0.2745748236174
                 7.495    0.44829431892377
                 2.797    0.28490261071525
                0.5215   0.015194859206082
 s    8 1.00
                  6665  -0.00029326965268655
                  1000  -0.0023180354739745
                   228  -0.011499786038565
                 64.71  -0.046826727009787
                 21.06   -0.12846616875047
                 7.495   -0.30126627246289
                 2.797   -0.25563070233011
                0.5215      1.093793361012
 s    1 1.00
                0.1596                   1
 p    3 1.00
                 9.439   0.056979251590039
                 2.002    0.31320721150073
                0.5456    0.76037674173753
 p    1 1.00
                0.1517                   1
 d    1 1.00
                  0.55                   1

8 0
 s    8 1.00
                 11720  0.00070964594651845
                  1759  0.0054672722921914
                 400.8   0.027823118610189
                 113.7    0.10474773971146
                 37.03    0.28292084635691
                 13.27    0.44849523869833
                 5.025    0.27081688521277
                 1.013    0.01545029160744
 s    8 1.00
                 11720  -0.00031444341168873
                  1759  -0.0024821376810179
                 400.8  -0.012316355381583
                 113.7  -0.050538917343672
                 37.03   -0.13938490331632
                 13.27   -0.32507749481778
                 5.025   -0.22984830758785
                 1.013     1.0953793467883
 s    1 1.00
                0.3023                   1
 p    3 1.00
                  17.7   0.062679166281506
                 3.854    0.33353656587936
                 1.046    0.74123964163973
 p    1 1.00
                0.2753                   1
 d    1 1.00
                 1.185                   1

9 0
 s    8 1.00
                  6665  0.00069158396281299
                  1000  0.0053257961529341
                   228   0.027060721042034
                 64.71    0.10165684614077
                 21.06     0.2745748236174
                 7.495    0.44829431892377
                 2.797    0.28490261071525
                0.5215   0.015194859206082
 s    8 1.00
                  6665  -0.00029326965268655
                  1000  -0.0023180354739745
                   228  -0.011499786038565
                 64.71  -0.046826727009787
                 21.06   -0.12846616875047
                 7.495   -0.30126627246289
                 2.797   -0.25563070233011
                0.5215      1.093793361012
 s    1 1.00
                0.1596                   1
 p    3 1.00
                 9.439   0.056979251590039
                 2.002    0.31320721150073
                0.5456    0.76037674173753
 p    1 1.00
                0.1517                   1
 d    1 1.00
                  0.55                   1

10 0
 s    3 1.00
                 13.01   0.033498726389998
                 1.962    0.23480080117413
                0.4446     0.8136829578829
 s    1 1.00
                 0.122                   1
 p    1 1.00
                 0.727                   1

11 0
 s    8 1.00
                  6665  0.00069158396281299
                  1000  0.0053257961529341
                   228   0.027060721042034
                 64.71    0.10165684614077
                 21.06     0.2745748236174
                 7.495    0.44829431892377
                 2.797    0.28490261071525
                0.5215   0.015194859206082
 s    8 1.00
                  6665  -0.00029326965268655
                  1000  -0.0023180354739745
                   228  -0.011499786038565
                 64.71  -0.046826727009787
                 21.06   -0.12846616875047
                 7.495   -0.30126627246289
                 2.797   -0.25563070233011
                0.5215      1.093793361012
 s    1 1.00
                0.1596                   1
 p    3 1.00
                 9.439   0.056979251590039
                 2.002    0.31320721150073
                0.5456    0.76037674173753
 p    1 1.00
                0.1517                   1
 d    1 1.00
                  0.55                   1

12 0
 s    8 1.00
                 11720  0.00070964594651845
                  1759  0.0054672722921914
                 400.8   0.027823118610189
                 113.7    0.10474773971146
                 37.03    0.28292084635691
                 13.27    0.44849523869833
                 5.025    0.27081688521277
                 1.013    0.01545029160744
 s    8 1.00
                 11720  -0.00031444341168873
                  1759  -0.0024821376810179
                 400.8  -0.012316355381583
                 113.7  -0.050538917343672
                 37.03   -0.13938490331632
                 13.27   -0.32507749481778
                 5.025   -0.22984830758785
                 1.013     1.0953793467883
 s    1 1.00
                0.3023                   1
 p    3 1.00
                  17.7   0.062679166281506
                 3.854    0.33353656587936
                 1.046    0.74123964163973
 p    1 1.00
                0.2753                   1
 d    1 1.00
                 1.185                   1

13 0
 s    3 1.00
                 13.01   0.033498726389998
                 1.962    0.23480080117413
                0.4446     0.8136829578829
 s    1 1.00
                 0.122                   1
 p    1 1.00
                 0.727                   1

14 0
 s    3 1.00
                 13.01   0.033498726389998
                 1.962    0.23480080117413
                0.4446     0.8136829578829
 s    1 1.00
                 0.122                   1
 p    1 1.00
                 0.727                   1

15 0
 s    3 1.00
                 13.01   0.033498726389998
                 1.962    0.23480080117413
                0.4446     0.8136829578829
 s    1 1.00
                 0.122                   1
 p    1 1.00
                 0.727                   1

16 0
 s    8 1.00
                 11720  0.00070964594651845
                  1759  0.0054672722921914
                 400.8   0.027823118610189
                 113.7    0.10474773971146
                 37.03    0.28292084635691
                 13.27    0.44849523869833
                 5.025    0.27081688521277
                 1.013    0.01545029160744
 s    8 1.00
                 11720  -0.00031444341168873
                  1759  -0.0024821376810179
                 400.8  -0.012316355381583
                 113.7  -0.050538917343672
                 37.03   -0.13938490331632
                 13.27   -0.32507749481778
                 5.025   -0.22984830758785
                 1.013     1.0953793467883
 s    1 1.00
                0.3023                   1
 p    3 1.00
                  17.7   0.062679166281506
                 3.854    0.33353656587936
                 1.046    0.74123964163973
 p    1 1.00
                0.2753                   1
 d    1 1.00
                 1.185                   1

17 0
 s    3 1.00
                 13.01   0.033498726389998
                 1.962    0.23480080117413
                0.4446     0.8136829578829
 s    1 1.00
                 0.122                   1
 p    1 1.00
                 0.727                   1

18 0
 s    3 1.00
                 13.01   0.033498726389998
                 1.962    0.23480080117413
                0.4446     0.8136829578829
 s    1 1.00
                 0.122                   1
 p    1 1.00
                 0.727                   1

19 0
 s    8 1.00
                 11720  0.00070964594651845
                  1759  0.0054672722921914
                 400.8   0.027823118610189
                 113.7    0.10474773971146
                 37.03    0.28292084635691
                 13.27    0.44849523869833
                 5.025    0.27081688521277
                 1.013    0.01545029160744
 s    8 1.00
                 11720  -0.00031444341168873
                  1759  -0.0024821376810179
                 400.8  -0.012316355381583
                 113.7  -0.050538917343672
                 37.03   -0.13938490331632
                 13.27   -0.32507749481778
                 5.025   -0.22984830758785
                 1.013     1.0953793467883
 s    1 1.00
                0.3023                   1
 p    3 1.00
                  17.7   0.062679166281506
                 3.854    0.33353656587936
                 1.046    0.74123964163973
 p    1 1.00
                0.2753                   1
 d    1 1.00
                 1.185                   1

20 0
 s    3 1.00
                 13.01   0.033498726389998
                 1.962    0.23480080117413
                0.4446     0.8136829578829
 s    1 1.00
                 0.122                   1
 p    1 1.00
                 0.727                   1

21 0
 s    3 1.00
                 13.01   0.033498726389998
                 1.962    0.23480080117413
                0.4446     0.8136829578829
 s    1 1.00
                 0.122                   1
 p    1 1.00
                 0.727                   1

22 0
 s    3 1.00
                 13.01   0.033498726389998
                 1.962    0.23480080117413
                0.4446     0.8136829578829
 s    1 1.00
                 0.122                   1
 p    1 1.00
                 0.727                   1

23 0
 s    3 1.00
                 13.01   0.033498726389998
                 1.962    0.23480080117413
                0.4446     0.8136829578829
 s    1 1.00
                 0.122                   1
 p    1 1.00
                 0.727                   1

24 0
 s    3 1.00
                 13.01   0.033498726389998
                 1.962    0.23480080117413
                0.4446     0.8136829578829
 s    1 1.00
                 0.122                   1
 p    1 1.00
                 0.727                   1

[5d]
[7f]
[9g]

[MO]
 Sym= A
 Ene=     -20.5989454
 Spin= Alpha
 Occup=    2.00000
   1    -0.0010298399975898
   2     0.010555110878279
   3    -0.0019724497737333
   4    -0.014384077164582
   5    0.00079645930998704
   6     0.021567616415522
   7    0.0041024885426373
   8    -0.0097810680605252
   9    0.0089336219811745
  10    -0.010750806905483
  11    0.00089746063103356
  12     0.003880050141199
  13    0.0025813789224938
  14    -0.0066905066507497
  15    -0.00062109539372084
  16    0.0017505303631315
  17    -0.0024206195965909
  18    -0.004834736662286
  19    0.0038685227853263
  20    0.0012941069189911
  21    -0.0025622698298303
  22    0.0032187863070965
  23    0.00038030929666726
  24    -8.0417942462724e-05
  25    -0.0004426920518944
  26    0.00047261910080387
  27    0.00023634321353749
  28    0.00020133696864972
  29    0.0043740544232725
  30     -0.16995944714734
  31    -0.053024557204512
  32     -0.10231244810365
  33      0.17257275657081
  34     -0.26308044891511
  35    -0.0073928200494814
  36      0.05541231494787
  37      -0.0977261897513
  38    -0.024428413307579
  39    -0.021547725658256
  40      0.03929609083537
  41     0.007295346629181
  42     0.014012583742896
  43    0.0074520782315871
  44     -0.20368170588554
  45     -0.18008325568005
  46      0.12238614919605
  47     -0.22304659594606
  48       0.3349012811496
  49     0.089505920091763
  50     -0.14376686479979
  51      0.19993919325027
  52    -0.0034890595832842
  53    -0.014960969817891
  54     0.015436550716842
  55    0.0026368112873779
  56     0.010717090242384
  57    -0.0009806883529561
  58      0.01246139353441
  59     0.029495744539573
  60     0.025570557433922
  61    0.0097742209515224
  62     0.010638627295796
  63     0.021078570093448
  64      0.01667814829203
  65     0.013236527514026
  66    -0.0021552004873725
  67    -0.0086740698989359
  68    -0.00083098973197799
  69    -0.0042680375624812
  70    0.0044118110312623
  71    -0.021415510090754
  72    -0.025309343002846
  73    -0.00036949680417476
  74    -0.00086803915887745
  75    -0.00065862215346969
  76    0.00061298175103488
  77    0.0039189295862931
  78    -0.0058218061544915
  79    0.0052693886643746
  80    -0.0030146948267106
  81    0.00011979237828445
  82    -0.0027960858598784
  83    -0.0053059973422234
  84    0.0035025059171243
  85    -0.0011580058826914
  86    -0.0006208922938299
  87    0.00022627673959443
  88    0.0012863536318744
  89    0.00041862231553183
  90    0.00027035332122589
  91    -0.00061357471217853
  92    -0.0053820247740011
  93    -0.00028021277765705
  94    0.00097479796177918
  95    0.00086567711373562
  96    -0.0040964130191385
  97    0.00044667822800812
  98    -0.00068787936183265
  99    0.00023177461847088
 100    0.00031780293593506
 101    -4.546275575441e-05
 102    -7.2746374047743e-05
 103    -8.8060531025668e-05
 104    -0.00039187750697794
 105    -0.00013605213039066
 106    0.0042093899790544
 107    0.0005708974192476
 108    0.00015370106914912
 109    -2.366342156402e-05
 110    0.0024486716816248
 111    -0.001896315900532
 112    -0.0041538969280371
 113    4.7664414208901e-05
 114    -2.635843817703e-05
 115    -0.00012994171709144
 116    -0.00013526284900548
 117    -0.00015380511783843
 118    1.4321781350738e-05
 119    0.0018140775210255
 120    0.0001229894200778
 121    -4.7429545652078e-05
 122    0.00010999322038453
 123    0.00028876926493647
 124     0.002094734302629
 125    -0.0025256513505888
 126    0.0011767716674288
 127    -0.00048302082564504
 128    -0.00081732941725725
 129    -0.00016249931729067
 130    0.0013121441610799
 131    -0.00088718279521224
 132    0.00022656394975355
 133    -7.8122043038826e-05
 134    5.0289308587644e-05
 135    -0.00037020408179097
 136    -7.0908858528815e-05
 137    -2.8579490882867e-05
 138    -0.00039685560414707
 139    -0.0002449445162979
 140    -0.0011258761440217
 141    -1.4437148336683e-05
 142    0.00014008172276296
 143    -0.00064857007893113
 144    4.9272006213069e-05
 145    0.00018487025951961
 146    -2.9137996820788e-05
 147    -2.9815275207119e-05
 148    -6.5991371635079e-06
 149    2.8774816059999e-05
 150    1.6820506798185e-05
 151    -0.024059471593893
 152    -0.021884039420285
 153    0.0009049902003242
 154    -0.00011757892145972
 155    -0.00055184846402348
 156     0.019531168758509
 157     0.019663979163798
 158    -0.0034245296830865
 159    0.0061921015553067
 160    -0.0060593276949293
 161     0.047032078327464
 162     0.051898158306651
 163    0.0061019883525622
 164    -0.0084858216226739
 165     0.008833489326921
 166    -2.5546013025957e-05
 167    0.0035169312523559
 168    0.0060502409114975
 169    0.0037480374140879
 170    0.0051014949491875
 171    0.0029555159992625
 172    -0.00097028392909577
 173     0.007547321013337
 174    -0.00082163781342203
 175    -0.00011364038571149
 176    -0.00041732255141031
 177    0.00027740888243027
 178    -0.00020228031592661
 179    0.00074076197273328
 180    -0.00010047289220535
 181    0.00018364601760935
 182    0.0003932433706609
 183    -0.00024687731503515
 184    -5.0335735801227e-05
 185    -0.0013797256085884
 186    -0.0033549609907768
 187    -0.00013381741588181
 188    -0.00023960261016018
 189    0.0005794695768957
 190    2.8297938978886e-05
 191    -0.00012791651550194
 192    -0.0010319853088955
 193    -0.00017960876707465
 194    -0.00061453006073774
 195    2.9588366544084e-05
 196    -0.00031668674767259
 197     -0.00126597777287
 198    0.00080994604249712
 199    7.5950404234638e-06
 200    1.8989983500262e-05
 201    6.4572227285162e-05
 202    1.9761251757069e-05
 203    -1.2871924932863e-05
 204    0.0014618647844743
 205    0.0037760112610855
 206    -0.00022634466422033
 207    6.9828135839985e-05
 208    0.0001782088968365
 209    0.00081295143361487
 210    -0.00073334496248083
 211    2.2504200494025e-06
 212    -9.5935367227114e-05
 213    -1.2778911696976e-05
 214    0.00011349237519242
 215    0.00031493216258178
 216    -6.4985471949804e-05
 217    2.3956948630293e-06
 218    -7.8275000748974e-06
 219    -0.00088457088742451
 220     0.010193305239795
 221    -0.00066653366496092
 222    0.0010167540025368
 223    -0.00035535267748572
 224    0.00016042967831051
 225    -0.0010748356408019
 226    0.00010990124288335
 227    1.7468972576065e-05
 228    -6.7514283674884e-05
