[Molden Format]
made by pyscf v[2.1.0]
[Atoms] (AU)
C   1   6     5.80518952178463     0.50358555603085    -2.01447450495210
O   2   8     7.59006230260208    -0.90749372816926    -2.10619425213399
C   3   6     4.06257668629083     0.88716594424731     0.25526042545400
O   4   8     4.92221121062936    -0.52198770903186     2.35899047472156
C   5   6     1.33654470639501     0.10405776904918    -0.51168492220073
H   6   1     0.89689425433657     0.93209418285884    -2.36575758397362
C   7   6    -0.64932879366180     1.09909683939116     1.38333243551311
O   8   8    -0.00969996419739     0.43834276158024     3.94911375031970
C   9   6    -3.35971006179398     0.18432766564233     0.79610193203064
H   10   1    -4.66165577257433     1.18213140530455     2.06285149374097
C   11   6    -4.19715353225174     0.65517938574345    -1.93554631390739
O   12   8    -6.81065988033421     0.10526341431665    -2.27483908066855
H   13   1     5.22581272007586     1.68491382773245    -3.67455355195552
H   14   1     4.03225036144381     2.94522509253638     0.63780524375420
H   15   1     3.63813663980902    -0.25163782047321     3.65830001755813
O   16   8     1.20169573987217    -2.59733407190845    -0.80186748643669
H   17   1    -0.61314809728088     3.17348700084872     1.28243995772258
H   18   1    -0.91242591335437    -1.12422074821725     4.30347519319814
O   19   8    -3.63012231131474    -2.45370354808476     1.43919651920751
H   20   1    -3.01998643747642    -0.49263081368674    -3.22017268475610
H   21   1    -3.94341055687576     2.65625195302014    -2.42398382532372
H   22   1    -7.07185971499772    -1.58002646891459    -1.60535635788826
H   23   1     2.47305434360030    -3.30624782000391     0.32275766317121
H   24   1    -2.30526934045242    -3.31584195953833     0.48480734753104
[GTO]
1 0
 s    8 1.00
                  6665  0.00069158396281299
                  1000  0.0053257961529341
                   228   0.027060721042034
                 64.71    0.10165684614077
                 21.06     0.2745748236174
                 7.495    0.44829431892377
                 2.797    0.28490261071525
                0.5215   0.015194859206082
 s    8 1.00
                  6665  -0.00029326965268655
                  1000  -0.0023180354739745
                   228  -0.011499786038565
                 64.71  -0.046826727009787
                 21.06   -0.12846616875047
                 7.495   -0.30126627246289
                 2.797   -0.25563070233011
                0.5215      1.093793361012
 s    1 1.00
                0.1596                   1
 p    3 1.00
                 9.439   0.056979251590039
                 2.002    0.31320721150073
                0.5456    0.76037674173753
 p    1 1.00
                0.1517                   1
 d    1 1.00
                  0.55                   1

2 0
 s    8 1.00
                 11720  0.00070964594651845
                  1759  0.0054672722921914
                 400.8   0.027823118610189
                 113.7    0.10474773971146
                 37.03    0.28292084635691
                 13.27    0.44849523869833
                 5.025    0.27081688521277
                 1.013    0.01545029160744
 s    8 1.00
                 11720  -0.00031444341168873
                  1759  -0.0024821376810179
                 400.8  -0.012316355381583
                 113.7  -0.050538917343672
                 37.03   -0.13938490331632
                 13.27   -0.32507749481778
                 5.025   -0.22984830758785
                 1.013     1.0953793467883
 s    1 1.00
                0.3023                   1
 p    3 1.00
                  17.7   0.062679166281506
                 3.854    0.33353656587936
                 1.046    0.74123964163973
 p    1 1.00
                0.2753                   1
 d    1 1.00
                 1.185                   1

3 0
 s    8 1.00
                  6665  0.00069158396281299
                  1000  0.0053257961529341
                   228   0.027060721042034
                 64.71    0.10165684614077
                 21.06     0.2745748236174
                 7.495    0.44829431892377
                 2.797    0.28490261071525
                0.5215   0.015194859206082
 s    8 1.00
                  6665  -0.00029326965268655
                  1000  -0.0023180354739745
                   228  -0.011499786038565
                 64.71  -0.046826727009787
                 21.06   -0.12846616875047
                 7.495   -0.30126627246289
                 2.797   -0.25563070233011
                0.5215      1.093793361012
 s    1 1.00
                0.1596                   1
 p    3 1.00
                 9.439   0.056979251590039
                 2.002    0.31320721150073
                0.5456    0.76037674173753
 p    1 1.00
                0.1517                   1
 d    1 1.00
                  0.55                   1

4 0
 s    8 1.00
                 11720  0.00070964594651845
                  1759  0.0054672722921914
                 400.8   0.027823118610189
                 113.7    0.10474773971146
                 37.03    0.28292084635691
                 13.27    0.44849523869833
                 5.025    0.27081688521277
                 1.013    0.01545029160744
 s    8 1.00
                 11720  -0.00031444341168873
                  1759  -0.0024821376810179
                 400.8  -0.012316355381583
                 113.7  -0.050538917343672
                 37.03   -0.13938490331632
                 13.27   -0.32507749481778
                 5.025   -0.22984830758785
                 1.013     1.0953793467883
 s    1 1.00
                0.3023                   1
 p    3 1.00
                  17.7   0.062679166281506
                 3.854    0.33353656587936
                 1.046    0.74123964163973
 p    1 1.00
                0.2753                   1
 d    1 1.00
                 1.185                   1

5 0
 s    8 1.00
                  6665  0.00069158396281299
                  1000  0.0053257961529341
                   228   0.027060721042034
                 64.71    0.10165684614077
                 21.06     0.2745748236174
                 7.495    0.44829431892377
                 2.797    0.28490261071525
                0.5215   0.015194859206082
 s    8 1.00
                  6665  -0.00029326965268655
                  1000  -0.0023180354739745
                   228  -0.011499786038565
                 64.71  -0.046826727009787
                 21.06   -0.12846616875047
                 7.495   -0.30126627246289
                 2.797   -0.25563070233011
                0.5215      1.093793361012
 s    1 1.00
                0.1596                   1
 p    3 1.00
                 9.439   0.056979251590039
                 2.002    0.31320721150073
                0.5456    0.76037674173753
 p    1 1.00
                0.1517                   1
 d    1 1.00
                  0.55                   1

6 0
 s    3 1.00
                 13.01   0.033498726389998
                 1.962    0.23480080117413
                0.4446     0.8136829578829
 s    1 1.00
                 0.122                   1
 p    1 1.00
                 0.727                   1

7 0
 s    8 1.00
                  6665  0.00069158396281299
                  1000  0.0053257961529341
                   228   0.027060721042034
                 64.71    0.10165684614077
                 21.06     0.2745748236174
                 7.495    0.44829431892377
                 2.797    0.28490261071525
                0.5215   0.015194859206082
 s    8 1.00
                  6665  -0.00029326965268655
                  1000  -0.0023180354739745
                   228  -0.011499786038565
                 64.71  -0.046826727009787
                 21.06   -0.12846616875047
                 7.495   -0.30126627246289
                 2.797   -0.25563070233011
                0.5215      1.093793361012
 s    1 1.00
                0.1596                   1
 p    3 1.00
                 9.439   0.056979251590039
                 2.002    0.31320721150073
                0.5456    0.76037674173753
 p    1 1.00
                0.1517                   1
 d    1 1.00
                  0.55                   1

8 0
 s    8 1.00
                 11720  0.00070964594651845
                  1759  0.0054672722921914
                 400.8   0.027823118610189
                 113.7    0.10474773971146
                 37.03    0.28292084635691
                 13.27    0.44849523869833
                 5.025    0.27081688521277
                 1.013    0.01545029160744
 s    8 1.00
                 11720  -0.00031444341168873
                  1759  -0.0024821376810179
                 400.8  -0.012316355381583
                 113.7  -0.050538917343672
                 37.03   -0.13938490331632
                 13.27   -0.32507749481778
                 5.025   -0.22984830758785
                 1.013     1.0953793467883
 s    1 1.00
                0.3023                   1
 p    3 1.00
                  17.7   0.062679166281506
                 3.854    0.33353656587936
                 1.046    0.74123964163973
 p    1 1.00
                0.2753                   1
 d    1 1.00
                 1.185                   1

9 0
 s    8 1.00
                  6665  0.00069158396281299
                  1000  0.0053257961529341
                   228   0.027060721042034
                 64.71    0.10165684614077
                 21.06     0.2745748236174
                 7.495    0.44829431892377
                 2.797    0.28490261071525
                0.5215   0.015194859206082
 s    8 1.00
                  6665  -0.00029326965268655
                  1000  -0.0023180354739745
                   228  -0.011499786038565
                 64.71  -0.046826727009787
                 21.06   -0.12846616875047
                 7.495   -0.30126627246289
                 2.797   -0.25563070233011
                0.5215      1.093793361012
 s    1 1.00
                0.1596                   1
 p    3 1.00
                 9.439   0.056979251590039
                 2.002    0.31320721150073
                0.5456    0.76037674173753
 p    1 1.00
                0.1517                   1
 d    1 1.00
                  0.55                   1

10 0
 s    3 1.00
                 13.01   0.033498726389998
                 1.962    0.23480080117413
                0.4446     0.8136829578829
 s    1 1.00
                 0.122                   1
 p    1 1.00
                 0.727                   1

11 0
 s    8 1.00
                  6665  0.00069158396281299
                  1000  0.0053257961529341
                   228   0.027060721042034
                 64.71    0.10165684614077
                 21.06     0.2745748236174
                 7.495    0.44829431892377
                 2.797    0.28490261071525
                0.5215   0.015194859206082
 s    8 1.00
                  6665  -0.00029326965268655
                  1000  -0.0023180354739745
                   228  -0.011499786038565
                 64.71  -0.046826727009787
                 21.06   -0.12846616875047
                 7.495   -0.30126627246289
                 2.797   -0.25563070233011
                0.5215      1.093793361012
 s    1 1.00
                0.1596                   1
 p    3 1.00
                 9.439   0.056979251590039
                 2.002    0.31320721150073
                0.5456    0.76037674173753
 p    1 1.00
                0.1517                   1
 d    1 1.00
                  0.55                   1

12 0
 s    8 1.00
                 11720  0.00070964594651845
                  1759  0.0054672722921914
                 400.8   0.027823118610189
                 113.7    0.10474773971146
                 37.03    0.28292084635691
                 13.27    0.44849523869833
                 5.025    0.27081688521277
                 1.013    0.01545029160744
 s    8 1.00
                 11720  -0.00031444341168873
                  1759  -0.0024821376810179
                 400.8  -0.012316355381583
                 113.7  -0.050538917343672
                 37.03   -0.13938490331632
                 13.27   -0.32507749481778
                 5.025   -0.22984830758785
                 1.013     1.0953793467883
 s    1 1.00
                0.3023                   1
 p    3 1.00
                  17.7   0.062679166281506
                 3.854    0.33353656587936
                 1.046    0.74123964163973
 p    1 1.00
                0.2753                   1
 d    1 1.00
                 1.185                   1

13 0
 s    3 1.00
                 13.01   0.033498726389998
                 1.962    0.23480080117413
                0.4446     0.8136829578829
 s    1 1.00
                 0.122                   1
 p    1 1.00
                 0.727                   1

14 0
 s    3 1.00
                 13.01   0.033498726389998
                 1.962    0.23480080117413
                0.4446     0.8136829578829
 s    1 1.00
                 0.122                   1
 p    1 1.00
                 0.727                   1

15 0
 s    3 1.00
                 13.01   0.033498726389998
                 1.962    0.23480080117413
                0.4446     0.8136829578829
 s    1 1.00
                 0.122                   1
 p    1 1.00
                 0.727                   1

16 0
 s    8 1.00
                 11720  0.00070964594651845
                  1759  0.0054672722921914
                 400.8   0.027823118610189
                 113.7    0.10474773971146
                 37.03    0.28292084635691
                 13.27    0.44849523869833
                 5.025    0.27081688521277
                 1.013    0.01545029160744
 s    8 1.00
                 11720  -0.00031444341168873
                  1759  -0.0024821376810179
                 400.8  -0.012316355381583
                 113.7  -0.050538917343672
                 37.03   -0.13938490331632
                 13.27   -0.32507749481778
                 5.025   -0.22984830758785
                 1.013     1.0953793467883
 s    1 1.00
                0.3023                   1
 p    3 1.00
                  17.7   0.062679166281506
                 3.854    0.33353656587936
                 1.046    0.74123964163973
 p    1 1.00
                0.2753                   1
 d    1 1.00
                 1.185                   1

17 0
 s    3 1.00
                 13.01   0.033498726389998
                 1.962    0.23480080117413
                0.4446     0.8136829578829
 s    1 1.00
                 0.122                   1
 p    1 1.00
                 0.727                   1

18 0
 s    3 1.00
                 13.01   0.033498726389998
                 1.962    0.23480080117413
                0.4446     0.8136829578829
 s    1 1.00
                 0.122                   1
 p    1 1.00
                 0.727                   1

19 0
 s    8 1.00
                 11720  0.00070964594651845
                  1759  0.0054672722921914
                 400.8   0.027823118610189
                 113.7    0.10474773971146
                 37.03    0.28292084635691
                 13.27    0.44849523869833
                 5.025    0.27081688521277
                 1.013    0.01545029160744
 s    8 1.00
                 11720  -0.00031444341168873
                  1759  -0.0024821376810179
                 400.8  -0.012316355381583
                 113.7  -0.050538917343672
                 37.03   -0.13938490331632
                 13.27   -0.32507749481778
                 5.025   -0.22984830758785
                 1.013     1.0953793467883
 s    1 1.00
                0.3023                   1
 p    3 1.00
                  17.7   0.062679166281506
                 3.854    0.33353656587936
                 1.046    0.74123964163973
 p    1 1.00
                0.2753                   1
 d    1 1.00
                 1.185                   1

20 0
 s    3 1.00
                 13.01   0.033498726389998
                 1.962    0.23480080117413
                0.4446     0.8136829578829
 s    1 1.00
                 0.122                   1
 p    1 1.00
                 0.727                   1

21 0
 s    3 1.00
                 13.01   0.033498726389998
                 1.962    0.23480080117413
                0.4446     0.8136829578829
 s    1 1.00
                 0.122                   1
 p    1 1.00
                 0.727                   1

22 0
 s    3 1.00
                 13.01   0.033498726389998
                 1.962    0.23480080117413
                0.4446     0.8136829578829
 s    1 1.00
                 0.122                   1
 p    1 1.00
                 0.727                   1

23 0
 s    3 1.00
                 13.01   0.033498726389998
                 1.962    0.23480080117413
                0.4446     0.8136829578829
 s    1 1.00
                 0.122                   1
 p    1 1.00
                 0.727                   1

24 0
 s    3 1.00
                 13.01   0.033498726389998
                 1.962    0.23480080117413
                0.4446     0.8136829578829
 s    1 1.00
                 0.122                   1
 p    1 1.00
                 0.727                   1

[5d]
[7f]
[9g]

[MO]
 Sym= A
 Ene=     -20.5989454
 Spin= Alpha
 Occup=    2.00000
   1    0.00015944272607458
   2    -0.0001960393880295
   3    -0.0028791813581471
   4    0.0003095452214787
   5    -0.00024806745038366
   6    -0.00036913495532888
   7    -0.00033148992060217
   8    -0.00052162351316685
   9    -0.00098500738265383
  10    -7.7511501443628e-05
  11    -1.6712476784168e-05
  12    -8.1686717977212e-05
  13    -2.5317379780144e-05
  14    3.3751714382749e-05
  15    -4.3713395467485e-05
  16    1.6388385777033e-05
  17    0.0006685176666994
  18    -0.00010355005593167
  19    0.00019467259046044
  20    0.00012373547698845
  21    -0.00018949078499252
  22    0.00035971114228254
  23    0.00023092736805345
  24    -1.1836703048851e-05
  25    7.3489097458986e-06
  26    -3.684566439286e-06
  27    -1.2435768035338e-05
  28    -1.3422755423186e-05
  29    0.00092288025079835
  30     0.001046831326208
  31    -0.011985603101219
  32     0.001002808072886
  33    0.00071405370210759
  34    0.00033830446814435
  35    0.0077095082901517
  36    0.0027965679379777
  37    4.3786963698936e-05
  38    0.00027679800743318
  39    -0.00016140668989106
  40    -1.1083993400773e-05
  41    -0.00063784264242684
  42    -0.0002750440564346
  43    -0.00011744506173445
  44    -6.5388861561364e-05
  45     0.001327743464348
  46    -0.00033796461437705
  47    0.00011318011679199
  48    -0.00083028537891133
  49    -0.0015458992794173
  50    0.00023145039704438
  51    -0.0019173471673806
  52    2.1916594943821e-05
  53    -1.0984161234895e-05
  54    -4.2467910474212e-05
  55    3.6328212887804e-06
  56    -3.5496841500894e-05
  57    -0.00031099464491761
  58    0.0013818017526885
  59    0.0095797567748643
  60    -0.0022779934099024
  61    0.0010478897540124
  62    -0.004463859160345
  63    0.0089794501869051
  64    0.0068438443323213
  65    -0.0044042114851059
  66    -0.0005814089770953
  67    -0.0003262873073084
  68    -0.00023081930991707
  69    0.0011740160429904
  70    0.00017566357040594
  71    0.0031985639720254
  72    -0.002150516542144
  73    -0.00025978444269223
  74    -0.00022750574251338
  75    0.00032245026074112
  76    0.00068890352912726
  77     0.012602830007073
  78     0.027528595621978
  79    -0.017705594717335
  80    -0.0065276321406893
  81    -0.0034317480352165
  82    -0.0095754819027904
  83    -0.011288253047884
  84    0.0013816967122553
  85    0.00012804092897307
  86    -0.00028692007023287
  87    0.00056181299602581
  88    -0.00095023615386195
  89    0.00026142804024605
  90    0.00048301402386834
  91    -0.0013555018203104
  92    -0.0090185426855762
  93    0.0038324038365401
  94    -0.00054657316825669
  95    0.0055080383636367
  96    0.0050037175585452
  97    -0.0013929760857925
  98    0.0091055352172003
  99    -0.00019113266314995
 100    0.00039116777090225
 101    0.00018082168794578
 102    0.0002308150588179
 103    -0.00016798932667682
 104    0.00083498189220655
 105    -0.014219001613343
 106    -0.015641805038701
 107    0.0080992064968893
 108    -0.0073060903695128
 109     0.023633380542842
 110    0.0011900097504888
 111    0.0048703427976843
 112     0.020110621263567
 113    -0.0016583486303918
 114     0.011345783275433
 115    0.0021915674171995
 116    0.0040697067819901
 117    -0.00085432448958864
 118    -0.012037595610901
 119     -0.01740012823417
 120    -0.00041800663716523
 121    -0.0005597541190851
 122    0.0013135726286725
 123    -0.0045959004693231
 124      0.16403189484276
 125     0.050323499546699
 126     -0.31591270267932
 127    -0.075797585277355
 128     -0.03394368465869
 129    -0.090159184795567
 130     -0.04407161667952
 131    -0.0021818034453697
 132    -0.025367943849818
 133    0.0098256492669269
 134    0.00068378202245725
 135     0.040274337485942
 136     0.021448394725056
 137    -0.0074795288117973
 138      0.20653216024506
 139      0.19276907717009
 140      0.40923111565666
 141     0.090299033556819
 142     0.046856113964629
 143      0.26173158764747
 144     0.041080004016268
 145     0.036836449244615
 146    -0.0091961478033747
 147    0.0086418807066459
 148    0.0013703233005176
 149     0.020418413457589
 150    -0.000414959514026
 151    -4.7129029051566e-05
 152    0.00047133196683551
 153    -3.6815628674291e-05
 154    1.4148648381679e-05
 155    2.0707212066051e-05
 156    0.00092132802600859
 157    -0.00053162450103559
 158    -0.00012946358331564
 159    5.519836739314e-05
 160    9.7458981385331e-05
 161    0.00021534007865807
 162     0.002384974791733
 163    -0.00013693438458114
 164    0.00013451011559083
 165    8.2530236246138e-05
 166    -0.00026492355012505
 167    -0.00047516068011079
 168    0.0025513419599758
 169    -0.00039230746141887
 170    -0.00077499172495871
 171    -0.00032725159460568
 172    -0.0012300101009166
 173    0.0012102036325692
 174    -0.00041311177416447
 175    -5.6409812873207e-05
 176    -0.00012716572745046
 177    -3.1348663613486e-05
 178    -0.00020551814666589
 179    -3.4794000844062e-05
 180     0.001525126699588
 181    0.0018561489814645
 182    -0.00081949884956061
 183    -0.00035143971936356
 184    -0.00050677648041567
 185    -0.0017651570683876
 186    -0.0033621923249563
 187    4.9375014411009e-05
 188    2.0933836978563e-05
 189    -0.00015187941080649
 190    -0.00040166911463806
 191    -0.001760113570705
 192      0.00174789240851
 193    0.00058825739425169
 194    -0.0041778622478772
 195    0.0020746355461042
 196    -0.0024496835330462
 197     -0.00200921914787
 198    -0.0022654208754948
 199    -0.00019383775502523
 200    0.00035237783996935
 201    0.00053721010623936
 202    8.7803243883709e-05
 203    2.3364205208548e-05
 204    -0.021552045443915
 205    -0.025888048373113
 206    -0.0090908070740343
 207    -0.0001567646024227
 208    -5.9531463080348e-05
 209    -0.012922141793642
 210    -0.013942133775755
 211    -0.0073092828725919
 212    -0.0037039222651863
 213    -0.0001460269034491
 214    -0.050395108115798
 215    -0.048178050925707
 216     0.014124761928587
 217    9.9356231967341e-05
 218    0.0027904362894995
 219    5.0873391405677e-05
 220    0.00043828440767518
 221    -1.2260489335539e-05
 222    -0.00019534802933346
 223    -5.1784710896844e-05
 224    -0.00080097714919936
 225    0.0052809576319305
 226    0.00033761999655336
 227    5.6964759597785e-05
 228    0.00058936945115736
