[Molden Format]
made by pyscf v[2.1.0]
[Atoms] (AU)
C   1   6     5.80518952178463     0.50358555603085    -2.01447450495210
O   2   8     7.59006230260208    -0.90749372816926    -2.10619425213399
C   3   6     4.06257668629083     0.88716594424731     0.25526042545400
O   4   8     4.92221121062936    -0.52198770903186     2.35899047472156
C   5   6     1.33654470639501     0.10405776904918    -0.51168492220073
H   6   1     0.89689425433657     0.93209418285884    -2.36575758397362
C   7   6    -0.64932879366180     1.09909683939116     1.38333243551311
O   8   8    -0.00969996419739     0.43834276158024     3.94911375031970
C   9   6    -3.35971006179398     0.18432766564233     0.79610193203064
H   10   1    -4.66165577257433     1.18213140530455     2.06285149374097
C   11   6    -4.19715353225174     0.65517938574345    -1.93554631390739
O   12   8    -6.81065988033421     0.10526341431665    -2.27483908066855
H   13   1     5.22581272007586     1.68491382773245    -3.67455355195552
H   14   1     4.03225036144381     2.94522509253638     0.63780524375420
H   15   1     3.63813663980902    -0.25163782047321     3.65830001755813
O   16   8     1.20169573987217    -2.59733407190845    -0.80186748643669
H   17   1    -0.61314809728088     3.17348700084872     1.28243995772258
H   18   1    -0.91242591335437    -1.12422074821725     4.30347519319814
O   19   8    -3.63012231131474    -2.45370354808476     1.43919651920751
H   20   1    -3.01998643747642    -0.49263081368674    -3.22017268475610
H   21   1    -3.94341055687576     2.65625195302014    -2.42398382532372
H   22   1    -7.07185971499772    -1.58002646891459    -1.60535635788826
H   23   1     2.47305434360030    -3.30624782000391     0.32275766317121
H   24   1    -2.30526934045242    -3.31584195953833     0.48480734753104
[GTO]
1 0
 s    8 1.00
                  6665  0.00069158396281299
                  1000  0.0053257961529341
                   228   0.027060721042034
                 64.71    0.10165684614077
                 21.06     0.2745748236174
                 7.495    0.44829431892377
                 2.797    0.28490261071525
                0.5215   0.015194859206082
 s    8 1.00
                  6665  -0.00029326965268655
                  1000  -0.0023180354739745
                   228  -0.011499786038565
                 64.71  -0.046826727009787
                 21.06   -0.12846616875047
                 7.495   -0.30126627246289
                 2.797   -0.25563070233011
                0.5215      1.093793361012
 s    1 1.00
                0.1596                   1
 p    3 1.00
                 9.439   0.056979251590039
                 2.002    0.31320721150073
                0.5456    0.76037674173753
 p    1 1.00
                0.1517                   1
 d    1 1.00
                  0.55                   1

2 0
 s    8 1.00
                 11720  0.00070964594651845
                  1759  0.0054672722921914
                 400.8   0.027823118610189
                 113.7    0.10474773971146
                 37.03    0.28292084635691
                 13.27    0.44849523869833
                 5.025    0.27081688521277
                 1.013    0.01545029160744
 s    8 1.00
                 11720  -0.00031444341168873
                  1759  -0.0024821376810179
                 400.8  -0.012316355381583
                 113.7  -0.050538917343672
                 37.03   -0.13938490331632
                 13.27   -0.32507749481778
                 5.025   -0.22984830758785
                 1.013     1.0953793467883
 s    1 1.00
                0.3023                   1
 p    3 1.00
                  17.7   0.062679166281506
                 3.854    0.33353656587936
                 1.046    0.74123964163973
 p    1 1.00
                0.2753                   1
 d    1 1.00
                 1.185                   1

3 0
 s    8 1.00
                  6665  0.00069158396281299
                  1000  0.0053257961529341
                   228   0.027060721042034
                 64.71    0.10165684614077
                 21.06     0.2745748236174
                 7.495    0.44829431892377
                 2.797    0.28490261071525
                0.5215   0.015194859206082
 s    8 1.00
                  6665  -0.00029326965268655
                  1000  -0.0023180354739745
                   228  -0.011499786038565
                 64.71  -0.046826727009787
                 21.06   -0.12846616875047
                 7.495   -0.30126627246289
                 2.797   -0.25563070233011
                0.5215      1.093793361012
 s    1 1.00
                0.1596                   1
 p    3 1.00
                 9.439   0.056979251590039
                 2.002    0.31320721150073
                0.5456    0.76037674173753
 p    1 1.00
                0.1517                   1
 d    1 1.00
                  0.55                   1

4 0
 s    8 1.00
                 11720  0.00070964594651845
                  1759  0.0054672722921914
                 400.8   0.027823118610189
                 113.7    0.10474773971146
                 37.03    0.28292084635691
                 13.27    0.44849523869833
                 5.025    0.27081688521277
                 1.013    0.01545029160744
 s    8 1.00
                 11720  -0.00031444341168873
                  1759  -0.0024821376810179
                 400.8  -0.012316355381583
                 113.7  -0.050538917343672
                 37.03   -0.13938490331632
                 13.27   -0.32507749481778
                 5.025   -0.22984830758785
                 1.013     1.0953793467883
 s    1 1.00
                0.3023                   1
 p    3 1.00
                  17.7   0.062679166281506
                 3.854    0.33353656587936
                 1.046    0.74123964163973
 p    1 1.00
                0.2753                   1
 d    1 1.00
                 1.185                   1

5 0
 s    8 1.00
                  6665  0.00069158396281299
                  1000  0.0053257961529341
                   228   0.027060721042034
                 64.71    0.10165684614077
                 21.06     0.2745748236174
                 7.495    0.44829431892377
                 2.797    0.28490261071525
                0.5215   0.015194859206082
 s    8 1.00
                  6665  -0.00029326965268655
                  1000  -0.0023180354739745
                   228  -0.011499786038565
                 64.71  -0.046826727009787
                 21.06   -0.12846616875047
                 7.495   -0.30126627246289
                 2.797   -0.25563070233011
                0.5215      1.093793361012
 s    1 1.00
                0.1596                   1
 p    3 1.00
                 9.439   0.056979251590039
                 2.002    0.31320721150073
                0.5456    0.76037674173753
 p    1 1.00
                0.1517                   1
 d    1 1.00
                  0.55                   1

6 0
 s    3 1.00
                 13.01   0.033498726389998
                 1.962    0.23480080117413
                0.4446     0.8136829578829
 s    1 1.00
                 0.122                   1
 p    1 1.00
                 0.727                   1

7 0
 s    8 1.00
                  6665  0.00069158396281299
                  1000  0.0053257961529341
                   228   0.027060721042034
                 64.71    0.10165684614077
                 21.06     0.2745748236174
                 7.495    0.44829431892377
                 2.797    0.28490261071525
                0.5215   0.015194859206082
 s    8 1.00
                  6665  -0.00029326965268655
                  1000  -0.0023180354739745
                   228  -0.011499786038565
                 64.71  -0.046826727009787
                 21.06   -0.12846616875047
                 7.495   -0.30126627246289
                 2.797   -0.25563070233011
                0.5215      1.093793361012
 s    1 1.00
                0.1596                   1
 p    3 1.00
                 9.439   0.056979251590039
                 2.002    0.31320721150073
                0.5456    0.76037674173753
 p    1 1.00
                0.1517                   1
 d    1 1.00
                  0.55                   1

8 0
 s    8 1.00
                 11720  0.00070964594651845
                  1759  0.0054672722921914
                 400.8   0.027823118610189
                 113.7    0.10474773971146
                 37.03    0.28292084635691
                 13.27    0.44849523869833
                 5.025    0.27081688521277
                 1.013    0.01545029160744
 s    8 1.00
                 11720  -0.00031444341168873
                  1759  -0.0024821376810179
                 400.8  -0.012316355381583
                 113.7  -0.050538917343672
                 37.03   -0.13938490331632
                 13.27   -0.32507749481778
                 5.025   -0.22984830758785
                 1.013     1.0953793467883
 s    1 1.00
                0.3023                   1
 p    3 1.00
                  17.7   0.062679166281506
                 3.854    0.33353656587936
                 1.046    0.74123964163973
 p    1 1.00
                0.2753                   1
 d    1 1.00
                 1.185                   1

9 0
 s    8 1.00
                  6665  0.00069158396281299
                  1000  0.0053257961529341
                   228   0.027060721042034
                 64.71    0.10165684614077
                 21.06     0.2745748236174
                 7.495    0.44829431892377
                 2.797    0.28490261071525
                0.5215   0.015194859206082
 s    8 1.00
                  6665  -0.00029326965268655
                  1000  -0.0023180354739745
                   228  -0.011499786038565
                 64.71  -0.046826727009787
                 21.06   -0.12846616875047
                 7.495   -0.30126627246289
                 2.797   -0.25563070233011
                0.5215      1.093793361012
 s    1 1.00
                0.1596                   1
 p    3 1.00
                 9.439   0.056979251590039
                 2.002    0.31320721150073
                0.5456    0.76037674173753
 p    1 1.00
                0.1517                   1
 d    1 1.00
                  0.55                   1

10 0
 s    3 1.00
                 13.01   0.033498726389998
                 1.962    0.23480080117413
                0.4446     0.8136829578829
 s    1 1.00
                 0.122                   1
 p    1 1.00
                 0.727                   1

11 0
 s    8 1.00
                  6665  0.00069158396281299
                  1000  0.0053257961529341
                   228   0.027060721042034
                 64.71    0.10165684614077
                 21.06     0.2745748236174
                 7.495    0.44829431892377
                 2.797    0.28490261071525
                0.5215   0.015194859206082
 s    8 1.00
                  6665  -0.00029326965268655
                  1000  -0.0023180354739745
                   228  -0.011499786038565
                 64.71  -0.046826727009787
                 21.06   -0.12846616875047
                 7.495   -0.30126627246289
                 2.797   -0.25563070233011
                0.5215      1.093793361012
 s    1 1.00
                0.1596                   1
 p    3 1.00
                 9.439   0.056979251590039
                 2.002    0.31320721150073
                0.5456    0.76037674173753
 p    1 1.00
                0.1517                   1
 d    1 1.00
                  0.55                   1

12 0
 s    8 1.00
                 11720  0.00070964594651845
                  1759  0.0054672722921914
                 400.8   0.027823118610189
                 113.7    0.10474773971146
                 37.03    0.28292084635691
                 13.27    0.44849523869833
                 5.025    0.27081688521277
                 1.013    0.01545029160744
 s    8 1.00
                 11720  -0.00031444341168873
                  1759  -0.0024821376810179
                 400.8  -0.012316355381583
                 113.7  -0.050538917343672
                 37.03   -0.13938490331632
                 13.27   -0.32507749481778
                 5.025   -0.22984830758785
                 1.013     1.0953793467883
 s    1 1.00
                0.3023                   1
 p    3 1.00
                  17.7   0.062679166281506
                 3.854    0.33353656587936
                 1.046    0.74123964163973
 p    1 1.00
                0.2753                   1
 d    1 1.00
                 1.185                   1

13 0
 s    3 1.00
                 13.01   0.033498726389998
                 1.962    0.23480080117413
                0.4446     0.8136829578829
 s    1 1.00
                 0.122                   1
 p    1 1.00
                 0.727                   1

14 0
 s    3 1.00
                 13.01   0.033498726389998
                 1.962    0.23480080117413
                0.4446     0.8136829578829
 s    1 1.00
                 0.122                   1
 p    1 1.00
                 0.727                   1

15 0
 s    3 1.00
                 13.01   0.033498726389998
                 1.962    0.23480080117413
                0.4446     0.8136829578829
 s    1 1.00
                 0.122                   1
 p    1 1.00
                 0.727                   1

16 0
 s    8 1.00
                 11720  0.00070964594651845
                  1759  0.0054672722921914
                 400.8   0.027823118610189
                 113.7    0.10474773971146
                 37.03    0.28292084635691
                 13.27    0.44849523869833
                 5.025    0.27081688521277
                 1.013    0.01545029160744
 s    8 1.00
                 11720  -0.00031444341168873
                  1759  -0.0024821376810179
                 400.8  -0.012316355381583
                 113.7  -0.050538917343672
                 37.03   -0.13938490331632
                 13.27   -0.32507749481778
                 5.025   -0.22984830758785
                 1.013     1.0953793467883
 s    1 1.00
                0.3023                   1
 p    3 1.00
                  17.7   0.062679166281506
                 3.854    0.33353656587936
                 1.046    0.74123964163973
 p    1 1.00
                0.2753                   1
 d    1 1.00
                 1.185                   1

17 0
 s    3 1.00
                 13.01   0.033498726389998
                 1.962    0.23480080117413
                0.4446     0.8136829578829
 s    1 1.00
                 0.122                   1
 p    1 1.00
                 0.727                   1

18 0
 s    3 1.00
                 13.01   0.033498726389998
                 1.962    0.23480080117413
                0.4446     0.8136829578829
 s    1 1.00
                 0.122                   1
 p    1 1.00
                 0.727                   1

19 0
 s    8 1.00
                 11720  0.00070964594651845
                  1759  0.0054672722921914
                 400.8   0.027823118610189
                 113.7    0.10474773971146
                 37.03    0.28292084635691
                 13.27    0.44849523869833
                 5.025    0.27081688521277
                 1.013    0.01545029160744
 s    8 1.00
                 11720  -0.00031444341168873
                  1759  -0.0024821376810179
                 400.8  -0.012316355381583
                 113.7  -0.050538917343672
                 37.03   -0.13938490331632
                 13.27   -0.32507749481778
                 5.025   -0.22984830758785
                 1.013     1.0953793467883
 s    1 1.00
                0.3023                   1
 p    3 1.00
                  17.7   0.062679166281506
                 3.854    0.33353656587936
                 1.046    0.74123964163973
 p    1 1.00
                0.2753                   1
 d    1 1.00
                 1.185                   1

20 0
 s    3 1.00
                 13.01   0.033498726389998
                 1.962    0.23480080117413
                0.4446     0.8136829578829
 s    1 1.00
                 0.122                   1
 p    1 1.00
                 0.727                   1

21 0
 s    3 1.00
                 13.01   0.033498726389998
                 1.962    0.23480080117413
                0.4446     0.8136829578829
 s    1 1.00
                 0.122                   1
 p    1 1.00
                 0.727                   1

22 0
 s    3 1.00
                 13.01   0.033498726389998
                 1.962    0.23480080117413
                0.4446     0.8136829578829
 s    1 1.00
                 0.122                   1
 p    1 1.00
                 0.727                   1

23 0
 s    3 1.00
                 13.01   0.033498726389998
                 1.962    0.23480080117413
                0.4446     0.8136829578829
 s    1 1.00
                 0.122                   1
 p    1 1.00
                 0.727                   1

24 0
 s    3 1.00
                 13.01   0.033498726389998
                 1.962    0.23480080117413
                0.4446     0.8136829578829
 s    1 1.00
                 0.122                   1
 p    1 1.00
                 0.727                   1

[5d]
[7f]
[9g]

[MO]
 Sym= A
 Ene=     -20.5989454
 Spin= Alpha
 Occup=    2.00000
   1    0.00019580473770033
   2    0.00058074900403101
   3    -0.0030356248584878
   4    -0.00019964330693526
   5    -1.6622085673827e-05
   6    0.00058644689559104
   7    0.00092715325838837
   8    0.00047938376505806
   9    -0.0017454541230984
  10    2.6687617934052e-05
  11    0.00013935749450922
  12    5.6501083197583e-05
  13    -4.2888833576958e-05
  14    5.7948261400653e-05
  15    -8.7596552797394e-06
  16    -6.733728607887e-05
  17    0.00020896968216066
  18    0.0002011060757611
  19    0.0001105353300869
  20    -0.00013639818409739
  21    7.349295531301e-05
  22    0.00018305391909103
  23    -1.3836600494354e-05
  24    1.640587674608e-06
  25    -1.6035335477564e-05
  26    1.4857402981989e-05
  27    -7.1090597019786e-06
  28    -1.0605790834641e-06
  29    -7.0962853438051e-05
  30    -0.0011041853404888
  31    -0.00027022706289857
  32    0.0006756439285562
  33    -0.0011752983640551
  34    -0.00021846375626438
  35    0.0025782780626867
  36    -0.0036508898002236
  37    -0.0036603978584788
  38    8.8178059877966e-06
  39    0.00010590252583511
  40    0.00020420410885129
  41    0.00021864388163301
  42    -1.6641612283638e-06
  43    9.507720295296e-05
  44    0.00035641705444522
  45    -0.00016788563449118
  46    -0.00033160264868536
  47    0.00028741873530503
  48    -0.00056550623418109
  49    -0.000393993092025
  50    0.0010324061270126
  51    -0.00040992623982254
  52    -3.8585794633599e-06
  53    1.7533461343229e-05
  54    -2.7347573811197e-05
  55    -5.6095175929811e-06
  56    -3.4273438401166e-05
  57    -0.00020532501420095
  58    -0.0035847926140254
  59    -0.0026038685330107
  60    0.0050067294134121
  61    0.0019248373726091
  62    -0.0036521861004728
  63    -0.0020970045707314
  64    0.0046941295495015
  65    -0.0028705237068634
  66    0.00057294426433621
  67    0.00011089020415282
  68    0.00017417258207275
  69    -0.0019962820349424
  70    -5.9784121169123e-05
  71    0.00046603228120842
  72    0.0029485634608335
  73    0.00025935212225786
  74    5.009623756529e-05
  75    -9.5164602466149e-05
  76    0.00022525853575318
  77    -0.014614118013967
  78     -0.02367918698188
  79     0.026947954620614
  80     0.010518712897275
  81    0.0091042663966939
  82     0.020480966074813
  83    0.0082723932754156
  84     0.014843100932952
  85     -0.00304618409352
  86    -0.0018954580322153
  87    0.0017709831955596
  88    -0.0031900682145059
  89     0.010018309668134
  90    -8.1495000398814e-05
  91    -0.0037496273602324
  92    -0.0053603303106785
  93    0.0042471301242878
  94    0.0024057528247457
  95    0.0055008801017397
  96    0.00042494359073227
  97    -0.0026932512162758
  98    0.0065145616099662
  99    -0.00019892549049518
 100    -0.00049040650983354
 101    -0.00025640889225742
 102    -0.00036284410943036
 103    0.00063789528038914
 104    -0.0062144484331343
 105      0.15008736781154
 106     0.049969494174314
 107    -0.021079621874517
 108     -0.31273703104957
 109     0.065594788910526
 110     0.016099990340005
 111     -0.10864362919856
 112    0.0076231854972485
 113    -0.023426346351208
 114    0.00031174973030931
 115     -0.02010224389783
 116    -0.043794923248306
 117    0.0063912366685354
 118    -0.015791515156187
 119    -0.015303538683512
 120    0.00099037155439158
 121    -0.0072245728511235
 122    -0.00054829274652125
 123    0.0008832306796625
 124    -0.013689447253205
 125    -0.017782838735116
 126    -0.0099382237756562
 127    0.0059525325031479
 128    -0.024221567386394
 129    -0.012659605807404
 130     0.011224837349078
 131    -0.010961364786311
 132    0.0011577593460295
 133    -0.00048254474572642
 134    -0.010878530942899
 135    -0.0020603828453318
 136    -0.0029434429778387
 137    -0.00030163848463477
 138    -0.0028065361182176
 139    -0.00071806579934752
 140    -0.0036009720995032
 141    0.0017108733458168
 142    -0.0015861829255965
 143    -0.0030061580420163
 144    -0.0031723892963117
 145    0.0028317840966932
 146    -0.0001916804591092
 147    -0.00055629946915766
 148    -0.00070401783290913
 149    -0.00043759087653268
 150    0.00018852999726502
 151    -7.783131223325e-05
 152    -0.0011767610148321
 153    -3.6286988032175e-05
 154    3.9687284961414e-05
 155    -5.3196911539728e-06
 156    -0.0010580414986243
 157    0.0007523738103517
 158    -0.00023855642665807
 159    8.1785157590382e-05
 160    0.00013100651350044
 161    -1.2968616573503e-05
 162    0.00095310285390008
 163    0.00016220810058442
 164    -2.3907245546217e-05
 165    -3.2157494323384e-05
 166    -0.00050393470208651
 167    0.0004317593554474
 168    0.0079165756095034
 169    -0.00040071351443632
 170    0.00069247794013517
 171    0.0011560692258092
 172    -0.0040618117031992
 173    -0.00078984742320728
 174    0.0014286937694751
 175    6.439365685283e-05
 176    -6.2439099540009e-05
 177    -5.8854049424686e-05
 178    0.00032196362811914
 179    -0.00021137349494573
 180      0.02049059537552
 181     0.025832892055913
 182    -0.00014779732074639
 183    -0.00018038258469484
 184    -0.0010383683913265
 185    0.0011190301295628
 186    -0.0097169420086368
 187    -0.00068660711471269
 188    -0.00087217616070679
 189    0.00060627231572491
 190    -0.0081398489768277
 191      0.20331676709805
 192      0.19940519909749
 193     0.034482753677127
 194      0.41554264848478
 195    -0.095227761447789
 196     0.037288859239503
 197      0.26510342882132
 198    -0.072461406465412
 199    -0.0066059587159645
 200    -0.0022552217572834
 201    -0.013315925166869
 202     -0.01439320604346
 203     0.010781911730838
 204    -0.010178287005016
 205    -0.0017600890243457
 206    -0.00053583852816891
 207    -0.00017597847598103
 208    -0.0010836730094302
 209     0.020612327899226
 210     0.024738096831987
 211    0.00071008758638159
 212    -9.3969122517094e-05
 213    0.00045030068243221
 214    0.00068431764774611
 215    -0.0065345785903195
 216    -0.00042528190208514
 217    -0.0013310094892351
 218    0.00081709673525876
 219    0.00048032873184954
 220    0.0029099545482843
 221    -0.00012262681800449
 222    0.00047893953183081
 223    7.943153495601e-05
 224     -0.05062795200372
 225     -0.05473076065095
 226    0.0041684476987147
 227     0.011966691353867
 228    -0.0054133860612893
