[Molden Format]
made by pyscf v[2.1.0]
[Atoms] (AU)
C   1   6     5.80518952178463     0.50358555603085    -2.01447450495210
O   2   8     7.59006230260208    -0.90749372816926    -2.10619425213399
C   3   6     4.06257668629083     0.88716594424731     0.25526042545400
O   4   8     4.92221121062936    -0.52198770903186     2.35899047472156
C   5   6     1.33654470639501     0.10405776904918    -0.51168492220073
H   6   1     0.89689425433657     0.93209418285884    -2.36575758397362
C   7   6    -0.64932879366180     1.09909683939116     1.38333243551311
O   8   8    -0.00969996419739     0.43834276158024     3.94911375031970
C   9   6    -3.35971006179398     0.18432766564233     0.79610193203064
H   10   1    -4.66165577257433     1.18213140530455     2.06285149374097
C   11   6    -4.19715353225174     0.65517938574345    -1.93554631390739
O   12   8    -6.81065988033421     0.10526341431665    -2.27483908066855
H   13   1     5.22581272007586     1.68491382773245    -3.67455355195552
H   14   1     4.03225036144381     2.94522509253638     0.63780524375420
H   15   1     3.63813663980902    -0.25163782047321     3.65830001755813
O   16   8     1.20169573987217    -2.59733407190845    -0.80186748643669
H   17   1    -0.61314809728088     3.17348700084872     1.28243995772258
H   18   1    -0.91242591335437    -1.12422074821725     4.30347519319814
O   19   8    -3.63012231131474    -2.45370354808476     1.43919651920751
H   20   1    -3.01998643747642    -0.49263081368674    -3.22017268475610
H   21   1    -3.94341055687576     2.65625195302014    -2.42398382532372
H   22   1    -7.07185971499772    -1.58002646891459    -1.60535635788826
H   23   1     2.47305434360030    -3.30624782000391     0.32275766317121
H   24   1    -2.30526934045242    -3.31584195953833     0.48480734753104
[GTO]
1 0
 s    8 1.00
                  6665  0.00069158396281299
                  1000  0.0053257961529341
                   228   0.027060721042034
                 64.71    0.10165684614077
                 21.06     0.2745748236174
                 7.495    0.44829431892377
                 2.797    0.28490261071525
                0.5215   0.015194859206082
 s    8 1.00
                  6665  -0.00029326965268655
                  1000  -0.0023180354739745
                   228  -0.011499786038565
                 64.71  -0.046826727009787
                 21.06   -0.12846616875047
                 7.495   -0.30126627246289
                 2.797   -0.25563070233011
                0.5215      1.093793361012
 s    1 1.00
                0.1596                   1
 p    3 1.00
                 9.439   0.056979251590039
                 2.002    0.31320721150073
                0.5456    0.76037674173753
 p    1 1.00
                0.1517                   1
 d    1 1.00
                  0.55                   1

2 0
 s    8 1.00
                 11720  0.00070964594651845
                  1759  0.0054672722921914
                 400.8   0.027823118610189
                 113.7    0.10474773971146
                 37.03    0.28292084635691
                 13.27    0.44849523869833
                 5.025    0.27081688521277
                 1.013    0.01545029160744
 s    8 1.00
                 11720  -0.00031444341168873
                  1759  -0.0024821376810179
                 400.8  -0.012316355381583
                 113.7  -0.050538917343672
                 37.03   -0.13938490331632
                 13.27   -0.32507749481778
                 5.025   -0.22984830758785
                 1.013     1.0953793467883
 s    1 1.00
                0.3023                   1
 p    3 1.00
                  17.7   0.062679166281506
                 3.854    0.33353656587936
                 1.046    0.74123964163973
 p    1 1.00
                0.2753                   1
 d    1 1.00
                 1.185                   1

3 0
 s    8 1.00
                  6665  0.00069158396281299
                  1000  0.0053257961529341
                   228   0.027060721042034
                 64.71    0.10165684614077
                 21.06     0.2745748236174
                 7.495    0.44829431892377
                 2.797    0.28490261071525
                0.5215   0.015194859206082
 s    8 1.00
                  6665  -0.00029326965268655
                  1000  -0.0023180354739745
                   228  -0.011499786038565
                 64.71  -0.046826727009787
                 21.06   -0.12846616875047
                 7.495   -0.30126627246289
                 2.797   -0.25563070233011
                0.5215      1.093793361012
 s    1 1.00
                0.1596                   1
 p    3 1.00
                 9.439   0.056979251590039
                 2.002    0.31320721150073
                0.5456    0.76037674173753
 p    1 1.00
                0.1517                   1
 d    1 1.00
                  0.55                   1

4 0
 s    8 1.00
                 11720  0.00070964594651845
                  1759  0.0054672722921914
                 400.8   0.027823118610189
                 113.7    0.10474773971146
                 37.03    0.28292084635691
                 13.27    0.44849523869833
                 5.025    0.27081688521277
                 1.013    0.01545029160744
 s    8 1.00
                 11720  -0.00031444341168873
                  1759  -0.0024821376810179
                 400.8  -0.012316355381583
                 113.7  -0.050538917343672
                 37.03   -0.13938490331632
                 13.27   -0.32507749481778
                 5.025   -0.22984830758785
                 1.013     1.0953793467883
 s    1 1.00
                0.3023                   1
 p    3 1.00
                  17.7   0.062679166281506
                 3.854    0.33353656587936
                 1.046    0.74123964163973
 p    1 1.00
                0.2753                   1
 d    1 1.00
                 1.185                   1

5 0
 s    8 1.00
                  6665  0.00069158396281299
                  1000  0.0053257961529341
                   228   0.027060721042034
                 64.71    0.10165684614077
                 21.06     0.2745748236174
                 7.495    0.44829431892377
                 2.797    0.28490261071525
                0.5215   0.015194859206082
 s    8 1.00
                  6665  -0.00029326965268655
                  1000  -0.0023180354739745
                   228  -0.011499786038565
                 64.71  -0.046826727009787
                 21.06   -0.12846616875047
                 7.495   -0.30126627246289
                 2.797   -0.25563070233011
                0.5215      1.093793361012
 s    1 1.00
                0.1596                   1
 p    3 1.00
                 9.439   0.056979251590039
                 2.002    0.31320721150073
                0.5456    0.76037674173753
 p    1 1.00
                0.1517                   1
 d    1 1.00
                  0.55                   1

6 0
 s    3 1.00
                 13.01   0.033498726389998
                 1.962    0.23480080117413
                0.4446     0.8136829578829
 s    1 1.00
                 0.122                   1
 p    1 1.00
                 0.727                   1

7 0
 s    8 1.00
                  6665  0.00069158396281299
                  1000  0.0053257961529341
                   228   0.027060721042034
                 64.71    0.10165684614077
                 21.06     0.2745748236174
                 7.495    0.44829431892377
                 2.797    0.28490261071525
                0.5215   0.015194859206082
 s    8 1.00
                  6665  -0.00029326965268655
                  1000  -0.0023180354739745
                   228  -0.011499786038565
                 64.71  -0.046826727009787
                 21.06   -0.12846616875047
                 7.495   -0.30126627246289
                 2.797   -0.25563070233011
                0.5215      1.093793361012
 s    1 1.00
                0.1596                   1
 p    3 1.00
                 9.439   0.056979251590039
                 2.002    0.31320721150073
                0.5456    0.76037674173753
 p    1 1.00
                0.1517                   1
 d    1 1.00
                  0.55                   1

8 0
 s    8 1.00
                 11720  0.00070964594651845
                  1759  0.0054672722921914
                 400.8   0.027823118610189
                 113.7    0.10474773971146
                 37.03    0.28292084635691
                 13.27    0.44849523869833
                 5.025    0.27081688521277
                 1.013    0.01545029160744
 s    8 1.00
                 11720  -0.00031444341168873
                  1759  -0.0024821376810179
                 400.8  -0.012316355381583
                 113.7  -0.050538917343672
                 37.03   -0.13938490331632
                 13.27   -0.32507749481778
                 5.025   -0.22984830758785
                 1.013     1.0953793467883
 s    1 1.00
                0.3023                   1
 p    3 1.00
                  17.7   0.062679166281506
                 3.854    0.33353656587936
                 1.046    0.74123964163973
 p    1 1.00
                0.2753                   1
 d    1 1.00
                 1.185                   1

9 0
 s    8 1.00
                  6665  0.00069158396281299
                  1000  0.0053257961529341
                   228   0.027060721042034
                 64.71    0.10165684614077
                 21.06     0.2745748236174
                 7.495    0.44829431892377
                 2.797    0.28490261071525
                0.5215   0.015194859206082
 s    8 1.00
                  6665  -0.00029326965268655
                  1000  -0.0023180354739745
                   228  -0.011499786038565
                 64.71  -0.046826727009787
                 21.06   -0.12846616875047
                 7.495   -0.30126627246289
                 2.797   -0.25563070233011
                0.5215      1.093793361012
 s    1 1.00
                0.1596                   1
 p    3 1.00
                 9.439   0.056979251590039
                 2.002    0.31320721150073
                0.5456    0.76037674173753
 p    1 1.00
                0.1517                   1
 d    1 1.00
                  0.55                   1

10 0
 s    3 1.00
                 13.01   0.033498726389998
                 1.962    0.23480080117413
                0.4446     0.8136829578829
 s    1 1.00
                 0.122                   1
 p    1 1.00
                 0.727                   1

11 0
 s    8 1.00
                  6665  0.00069158396281299
                  1000  0.0053257961529341
                   228   0.027060721042034
                 64.71    0.10165684614077
                 21.06     0.2745748236174
                 7.495    0.44829431892377
                 2.797    0.28490261071525
                0.5215   0.015194859206082
 s    8 1.00
                  6665  -0.00029326965268655
                  1000  -0.0023180354739745
                   228  -0.011499786038565
                 64.71  -0.046826727009787
                 21.06   -0.12846616875047
                 7.495   -0.30126627246289
                 2.797   -0.25563070233011
                0.5215      1.093793361012
 s    1 1.00
                0.1596                   1
 p    3 1.00
                 9.439   0.056979251590039
                 2.002    0.31320721150073
                0.5456    0.76037674173753
 p    1 1.00
                0.1517                   1
 d    1 1.00
                  0.55                   1

12 0
 s    8 1.00
                 11720  0.00070964594651845
                  1759  0.0054672722921914
                 400.8   0.027823118610189
                 113.7    0.10474773971146
                 37.03    0.28292084635691
                 13.27    0.44849523869833
                 5.025    0.27081688521277
                 1.013    0.01545029160744
 s    8 1.00
                 11720  -0.00031444341168873
                  1759  -0.0024821376810179
                 400.8  -0.012316355381583
                 113.7  -0.050538917343672
                 37.03   -0.13938490331632
                 13.27   -0.32507749481778
                 5.025   -0.22984830758785
                 1.013     1.0953793467883
 s    1 1.00
                0.3023                   1
 p    3 1.00
                  17.7   0.062679166281506
                 3.854    0.33353656587936
                 1.046    0.74123964163973
 p    1 1.00
                0.2753                   1
 d    1 1.00
                 1.185                   1

13 0
 s    3 1.00
                 13.01   0.033498726389998
                 1.962    0.23480080117413
                0.4446     0.8136829578829
 s    1 1.00
                 0.122                   1
 p    1 1.00
                 0.727                   1

14 0
 s    3 1.00
                 13.01   0.033498726389998
                 1.962    0.23480080117413
                0.4446     0.8136829578829
 s    1 1.00
                 0.122                   1
 p    1 1.00
                 0.727                   1

15 0
 s    3 1.00
                 13.01   0.033498726389998
                 1.962    0.23480080117413
                0.4446     0.8136829578829
 s    1 1.00
                 0.122                   1
 p    1 1.00
                 0.727                   1

16 0
 s    8 1.00
                 11720  0.00070964594651845
                  1759  0.0054672722921914
                 400.8   0.027823118610189
                 113.7    0.10474773971146
                 37.03    0.28292084635691
                 13.27    0.44849523869833
                 5.025    0.27081688521277
                 1.013    0.01545029160744
 s    8 1.00
                 11720  -0.00031444341168873
                  1759  -0.0024821376810179
                 400.8  -0.012316355381583
                 113.7  -0.050538917343672
                 37.03   -0.13938490331632
                 13.27   -0.32507749481778
                 5.025   -0.22984830758785
                 1.013     1.0953793467883
 s    1 1.00
                0.3023                   1
 p    3 1.00
                  17.7   0.062679166281506
                 3.854    0.33353656587936
                 1.046    0.74123964163973
 p    1 1.00
                0.2753                   1
 d    1 1.00
                 1.185                   1

17 0
 s    3 1.00
                 13.01   0.033498726389998
                 1.962    0.23480080117413
                0.4446     0.8136829578829
 s    1 1.00
                 0.122                   1
 p    1 1.00
                 0.727                   1

18 0
 s    3 1.00
                 13.01   0.033498726389998
                 1.962    0.23480080117413
                0.4446     0.8136829578829
 s    1 1.00
                 0.122                   1
 p    1 1.00
                 0.727                   1

19 0
 s    8 1.00
                 11720  0.00070964594651845
                  1759  0.0054672722921914
                 400.8   0.027823118610189
                 113.7    0.10474773971146
                 37.03    0.28292084635691
                 13.27    0.44849523869833
                 5.025    0.27081688521277
                 1.013    0.01545029160744
 s    8 1.00
                 11720  -0.00031444341168873
                  1759  -0.0024821376810179
                 400.8  -0.012316355381583
                 113.7  -0.050538917343672
                 37.03   -0.13938490331632
                 13.27   -0.32507749481778
                 5.025   -0.22984830758785
                 1.013     1.0953793467883
 s    1 1.00
                0.3023                   1
 p    3 1.00
                  17.7   0.062679166281506
                 3.854    0.33353656587936
                 1.046    0.74123964163973
 p    1 1.00
                0.2753                   1
 d    1 1.00
                 1.185                   1

20 0
 s    3 1.00
                 13.01   0.033498726389998
                 1.962    0.23480080117413
                0.4446     0.8136829578829
 s    1 1.00
                 0.122                   1
 p    1 1.00
                 0.727                   1

21 0
 s    3 1.00
                 13.01   0.033498726389998
                 1.962    0.23480080117413
                0.4446     0.8136829578829
 s    1 1.00
                 0.122                   1
 p    1 1.00
                 0.727                   1

22 0
 s    3 1.00
                 13.01   0.033498726389998
                 1.962    0.23480080117413
                0.4446     0.8136829578829
 s    1 1.00
                 0.122                   1
 p    1 1.00
                 0.727                   1

23 0
 s    3 1.00
                 13.01   0.033498726389998
                 1.962    0.23480080117413
                0.4446     0.8136829578829
 s    1 1.00
                 0.122                   1
 p    1 1.00
                 0.727                   1

24 0
 s    3 1.00
                 13.01   0.033498726389998
                 1.962    0.23480080117413
                0.4446     0.8136829578829
 s    1 1.00
                 0.122                   1
 p    1 1.00
                 0.727                   1

[5d]
[7f]
[9g]

[MO]
 Sym= A
 Ene=     -20.5989454
 Spin= Alpha
 Occup=    2.00000
   1    -0.00036363335087124
   2    0.0011528114980741
   3     0.012016640676235
   4    -0.00018198060702426
   5    0.0019623325887491
   6    0.0028856101122016
   7    -0.0027669538335424
   8    -0.00064046077266077
   9    0.0034829089402365
  10    0.00014173973099991
  11    -1.7073874454822e-06
  12    0.00011533059407207
  13    -0.00045762145266649
  14    -0.00026958340437728
  15     0.000180526725663
  16    -0.00015762674026823
  17    -0.0030826425470357
  18    -0.00025635812630682
  19    -0.0017244326526361
  20    -0.0010972649155332
  21    0.00093891717411592
  22    -0.0017644493415076
  23    -0.0019649460968841
  24    7.0542726253574e-05
  25    -2.8031922193327e-05
  26    3.3134538098033e-05
  27    -4.3203312520989e-05
  28    7.2758781057066e-05
  29    0.00029336101382731
  30    -0.0037030612405651
  31    -0.015381011350424
  32    0.0075577384063608
  33    0.0020579885747995
  34    0.0023652790964075
  35    0.0065237210791182
  36    0.00066306402204583
  37    0.0045003157674375
  38    -0.00061250426294914
  39    -0.0013298362606004
  40    -0.00015625796240273
  41    0.00093100118434946
  42    -0.00027186253165483
  43    2.4008464245409e-05
  44    -0.00034902566081032
  45    -0.00065003633036396
  46    0.00087604667029744
  47    -0.00038929231660278
  48    -0.00021597817820402
  49    -0.00022452999264465
  50    -0.00060968548604456
  51    -0.00053888917073707
  52    -4.7326563337978e-06
  53    -0.00013869416229375
  54    -8.5150225336248e-05
  55    -3.3245445422349e-05
  56    7.2169374916353e-05
  57    -0.00034812707044083
  58    0.0095944811420703
  59     0.044048761264189
  60     -0.01322885063426
  61    0.0067897855294856
  62     0.013694695421046
  63    -0.021499040600393
  64     0.013739522020316
  65      0.01825777471235
  66    0.0011342495017025
  67    0.00024541510374495
  68    -0.00054312357517344
  69    -0.001232044617478
  70    -0.00067703576520255
  71    0.0019540237978321
  72    0.0024381353131061
  73    -0.00075365118650433
  74    -0.00039969799240958
  75    0.00036171120976256
  76    -0.0017865390840635
  77    -0.019704889448009
  78    -0.036444345071163
  79     0.023848222027345
  80    0.0094391337960742
  81     0.015358453368585
  82    0.0099937574999699
  83    0.0049010127291148
  84     0.027898929761555
  85    -0.0062826228326997
  86    -0.0096184871262552
  87    -0.0017512303298514
  88     0.012408918537667
  89    -0.0047563013782004
  90    0.00026903206468859
  91    -0.0025028174553253
  92    -0.011795550283623
  93    0.0055178881394876
  94    -0.00022597890979999
  95     0.005360205697514
  96    0.0061306508284966
  97    -0.0051038681800325
  98    0.0058968842582494
  99    -5.8453953540013e-05
 100    -0.00084972214122942
 101    -0.00026657058798162
 102    0.00023889219122311
 103    -7.8454012496205e-06
 104    -0.0061646274665734
 105      0.20348208590388
 106     0.095606804728255
 107     -0.24231468958979
 108      0.17374090269267
 109      0.24128661383801
 110     -0.10085710481807
 111     0.096383790422578
 112       0.1042742562051
 113    0.0036061744345784
 114    -0.015427871623871
 115     0.013856635084062
 116    0.0056749754607873
 117    -0.012520062722885
 118      0.43709007089894
 119      0.12699572997928
 120     0.022423420782963
 121    -0.015398764440757
 122    -0.021095219697831
 123    -0.0028470248424441
 124    -0.019121479503782
 125    -0.018976596192448
 126    -0.017120730822334
 127    0.0049592199023601
 128    -0.025037615146877
 129    -0.010376440430199
 130    -0.0049697935781352
 131     -0.01625200465729
 132     0.013122055146543
 133    -0.009246444834955
 134    0.0068419162580838
 135    -0.0021524706923829
 136    -8.089541836693e-05
 137    -6.8803227999664e-05
 138    -0.0038410712416759
 139    -0.010991373754802
 140    -0.0086133963109259
 141    -0.00089738170603129
 142    -0.0053289509724984
 143    -0.0080040669480155
 144    -0.0029922848072865
 145    -0.003828921406366
 146    0.00028626546787951
 147    -0.00086213563666403
 148    -1.4636557215499e-05
 149    2.5478582036342e-05
 150    0.00027826501263907
 151    -0.00026002322334804
 152    -0.0010878085357866
 153    0.00012211561314826
 154    0.00014894818936421
 155    -1.7494000956406e-05
 156    -0.0014424186598962
 157    0.00092667341455477
 158    0.00033966341240453
 159    7.5487759878355e-06
 160    -0.0001237245582105
 161    0.00045786635260164
 162    -0.00062792068318528
 163    -6.7996255677784e-05
 164    -0.00013540511116867
 165    0.00012091541280576
 166    -0.00053441034981844
 167    -0.0029023844220276
 168    -0.001394714564765
 169    0.0035512561859585
 170     0.000604322108111
 171    -0.0015758976958379
 172    0.0032226324280793
 173     0.003074932718034
 174    -0.0030506578872495
 175    -4.6392938264257e-05
 176    -4.6434154130046e-05
 177    0.00017228888892724
 178    -0.00013532121894453
 179    -3.31693907237e-05
 180    -0.013020250238294
 181    -0.016082009234826
 182    0.0023430635267972
 183    0.00020754629433802
 184    -0.00063143078896268
 185    -0.0024204865356361
 186    -0.0059855452984218
 187    0.00012154416840629
 188    -0.00019603371783519
 189    0.0017690614466195
 190    -0.0017769317175434
 191    -0.010569789480911
 192     -0.02112025671992
 193    -0.00010283760638444
 194    -0.021548621108949
 195    0.0021488799575124
 196    0.0094521775401284
 197    -0.011123706380699
 198    -0.012147923641077
 199    -0.0036289502741217
 200    -5.9031420519218e-05
 201    0.0042379037707144
 202    -0.004660118245205
 203    -0.0054761477502166
 204     0.020296060402767
 205     0.038405784700597
 206    0.0012991486582634
 207    -0.00073989519513962
 208    -0.0006516860792593
 209    -0.0079653601105813
 210    -0.0053680131555153
 211    -0.00021476875391075
 212    -0.00037422411455828
 213    -0.0025189521941093
 214    -0.0018149376343626
 215    -0.0027037079084939
 216    -0.0015419609003564
 217    -0.00082423199378517
 218    -0.00033454116661505
 219    0.00044096243433358
 220    0.0024225562821584
 221    0.0002788054927279
 222    -8.082109678006e-05
 223    -0.00025027566559392
 224     0.025814203153759
 225     0.031860507496458
 226    -0.0008184982841669
 227    -0.0048930550342401
 228    0.00061840121115869
