[Molden Format]
made by pyscf v[2.1.0]
[Atoms] (AU)
C   1   6     5.80518952178463     0.50358555603085    -2.01447450495210
O   2   8     7.59006230260208    -0.90749372816926    -2.10619425213399
C   3   6     4.06257668629083     0.88716594424731     0.25526042545400
O   4   8     4.92221121062936    -0.52198770903186     2.35899047472156
C   5   6     1.33654470639501     0.10405776904918    -0.51168492220073
H   6   1     0.89689425433657     0.93209418285884    -2.36575758397362
C   7   6    -0.64932879366180     1.09909683939116     1.38333243551311
O   8   8    -0.00969996419739     0.43834276158024     3.94911375031970
C   9   6    -3.35971006179398     0.18432766564233     0.79610193203064
H   10   1    -4.66165577257433     1.18213140530455     2.06285149374097
C   11   6    -4.19715353225174     0.65517938574345    -1.93554631390739
O   12   8    -6.81065988033421     0.10526341431665    -2.27483908066855
H   13   1     5.22581272007586     1.68491382773245    -3.67455355195552
H   14   1     4.03225036144381     2.94522509253638     0.63780524375420
H   15   1     3.63813663980902    -0.25163782047321     3.65830001755813
O   16   8     1.20169573987217    -2.59733407190845    -0.80186748643669
H   17   1    -0.61314809728088     3.17348700084872     1.28243995772258
H   18   1    -0.91242591335437    -1.12422074821725     4.30347519319814
O   19   8    -3.63012231131474    -2.45370354808476     1.43919651920751
H   20   1    -3.01998643747642    -0.49263081368674    -3.22017268475610
H   21   1    -3.94341055687576     2.65625195302014    -2.42398382532372
H   22   1    -7.07185971499772    -1.58002646891459    -1.60535635788826
H   23   1     2.47305434360030    -3.30624782000391     0.32275766317121
H   24   1    -2.30526934045242    -3.31584195953833     0.48480734753104
[GTO]
1 0
 s    8 1.00
                  6665  0.00069158396281299
                  1000  0.0053257961529341
                   228   0.027060721042034
                 64.71    0.10165684614077
                 21.06     0.2745748236174
                 7.495    0.44829431892377
                 2.797    0.28490261071525
                0.5215   0.015194859206082
 s    8 1.00
                  6665  -0.00029326965268655
                  1000  -0.0023180354739745
                   228  -0.011499786038565
                 64.71  -0.046826727009787
                 21.06   -0.12846616875047
                 7.495   -0.30126627246289
                 2.797   -0.25563070233011
                0.5215      1.093793361012
 s    1 1.00
                0.1596                   1
 p    3 1.00
                 9.439   0.056979251590039
                 2.002    0.31320721150073
                0.5456    0.76037674173753
 p    1 1.00
                0.1517                   1
 d    1 1.00
                  0.55                   1

2 0
 s    8 1.00
                 11720  0.00070964594651845
                  1759  0.0054672722921914
                 400.8   0.027823118610189
                 113.7    0.10474773971146
                 37.03    0.28292084635691
                 13.27    0.44849523869833
                 5.025    0.27081688521277
                 1.013    0.01545029160744
 s    8 1.00
                 11720  -0.00031444341168873
                  1759  -0.0024821376810179
                 400.8  -0.012316355381583
                 113.7  -0.050538917343672
                 37.03   -0.13938490331632
                 13.27   -0.32507749481778
                 5.025   -0.22984830758785
                 1.013     1.0953793467883
 s    1 1.00
                0.3023                   1
 p    3 1.00
                  17.7   0.062679166281506
                 3.854    0.33353656587936
                 1.046    0.74123964163973
 p    1 1.00
                0.2753                   1
 d    1 1.00
                 1.185                   1

3 0
 s    8 1.00
                  6665  0.00069158396281299
                  1000  0.0053257961529341
                   228   0.027060721042034
                 64.71    0.10165684614077
                 21.06     0.2745748236174
                 7.495    0.44829431892377
                 2.797    0.28490261071525
                0.5215   0.015194859206082
 s    8 1.00
                  6665  -0.00029326965268655
                  1000  -0.0023180354739745
                   228  -0.011499786038565
                 64.71  -0.046826727009787
                 21.06   -0.12846616875047
                 7.495   -0.30126627246289
                 2.797   -0.25563070233011
                0.5215      1.093793361012
 s    1 1.00
                0.1596                   1
 p    3 1.00
                 9.439   0.056979251590039
                 2.002    0.31320721150073
                0.5456    0.76037674173753
 p    1 1.00
                0.1517                   1
 d    1 1.00
                  0.55                   1

4 0
 s    8 1.00
                 11720  0.00070964594651845
                  1759  0.0054672722921914
                 400.8   0.027823118610189
                 113.7    0.10474773971146
                 37.03    0.28292084635691
                 13.27    0.44849523869833
                 5.025    0.27081688521277
                 1.013    0.01545029160744
 s    8 1.00
                 11720  -0.00031444341168873
                  1759  -0.0024821376810179
                 400.8  -0.012316355381583
                 113.7  -0.050538917343672
                 37.03   -0.13938490331632
                 13.27   -0.32507749481778
                 5.025   -0.22984830758785
                 1.013     1.0953793467883
 s    1 1.00
                0.3023                   1
 p    3 1.00
                  17.7   0.062679166281506
                 3.854    0.33353656587936
                 1.046    0.74123964163973
 p    1 1.00
                0.2753                   1
 d    1 1.00
                 1.185                   1

5 0
 s    8 1.00
                  6665  0.00069158396281299
                  1000  0.0053257961529341
                   228   0.027060721042034
                 64.71    0.10165684614077
                 21.06     0.2745748236174
                 7.495    0.44829431892377
                 2.797    0.28490261071525
                0.5215   0.015194859206082
 s    8 1.00
                  6665  -0.00029326965268655
                  1000  -0.0023180354739745
                   228  -0.011499786038565
                 64.71  -0.046826727009787
                 21.06   -0.12846616875047
                 7.495   -0.30126627246289
                 2.797   -0.25563070233011
                0.5215      1.093793361012
 s    1 1.00
                0.1596                   1
 p    3 1.00
                 9.439   0.056979251590039
                 2.002    0.31320721150073
                0.5456    0.76037674173753
 p    1 1.00
                0.1517                   1
 d    1 1.00
                  0.55                   1

6 0
 s    3 1.00
                 13.01   0.033498726389998
                 1.962    0.23480080117413
                0.4446     0.8136829578829
 s    1 1.00
                 0.122                   1
 p    1 1.00
                 0.727                   1

7 0
 s    8 1.00
                  6665  0.00069158396281299
                  1000  0.0053257961529341
                   228   0.027060721042034
                 64.71    0.10165684614077
                 21.06     0.2745748236174
                 7.495    0.44829431892377
                 2.797    0.28490261071525
                0.5215   0.015194859206082
 s    8 1.00
                  6665  -0.00029326965268655
                  1000  -0.0023180354739745
                   228  -0.011499786038565
                 64.71  -0.046826727009787
                 21.06   -0.12846616875047
                 7.495   -0.30126627246289
                 2.797   -0.25563070233011
                0.5215      1.093793361012
 s    1 1.00
                0.1596                   1
 p    3 1.00
                 9.439   0.056979251590039
                 2.002    0.31320721150073
                0.5456    0.76037674173753
 p    1 1.00
                0.1517                   1
 d    1 1.00
                  0.55                   1

8 0
 s    8 1.00
                 11720  0.00070964594651845
                  1759  0.0054672722921914
                 400.8   0.027823118610189
                 113.7    0.10474773971146
                 37.03    0.28292084635691
                 13.27    0.44849523869833
                 5.025    0.27081688521277
                 1.013    0.01545029160744
 s    8 1.00
                 11720  -0.00031444341168873
                  1759  -0.0024821376810179
                 400.8  -0.012316355381583
                 113.7  -0.050538917343672
                 37.03   -0.13938490331632
                 13.27   -0.32507749481778
                 5.025   -0.22984830758785
                 1.013     1.0953793467883
 s    1 1.00
                0.3023                   1
 p    3 1.00
                  17.7   0.062679166281506
                 3.854    0.33353656587936
                 1.046    0.74123964163973
 p    1 1.00
                0.2753                   1
 d    1 1.00
                 1.185                   1

9 0
 s    8 1.00
                  6665  0.00069158396281299
                  1000  0.0053257961529341
                   228   0.027060721042034
                 64.71    0.10165684614077
                 21.06     0.2745748236174
                 7.495    0.44829431892377
                 2.797    0.28490261071525
                0.5215   0.015194859206082
 s    8 1.00
                  6665  -0.00029326965268655
                  1000  -0.0023180354739745
                   228  -0.011499786038565
                 64.71  -0.046826727009787
                 21.06   -0.12846616875047
                 7.495   -0.30126627246289
                 2.797   -0.25563070233011
                0.5215      1.093793361012
 s    1 1.00
                0.1596                   1
 p    3 1.00
                 9.439   0.056979251590039
                 2.002    0.31320721150073
                0.5456    0.76037674173753
 p    1 1.00
                0.1517                   1
 d    1 1.00
                  0.55                   1

10 0
 s    3 1.00
                 13.01   0.033498726389998
                 1.962    0.23480080117413
                0.4446     0.8136829578829
 s    1 1.00
                 0.122                   1
 p    1 1.00
                 0.727                   1

11 0
 s    8 1.00
                  6665  0.00069158396281299
                  1000  0.0053257961529341
                   228   0.027060721042034
                 64.71    0.10165684614077
                 21.06     0.2745748236174
                 7.495    0.44829431892377
                 2.797    0.28490261071525
                0.5215   0.015194859206082
 s    8 1.00
                  6665  -0.00029326965268655
                  1000  -0.0023180354739745
                   228  -0.011499786038565
                 64.71  -0.046826727009787
                 21.06   -0.12846616875047
                 7.495   -0.30126627246289
                 2.797   -0.25563070233011
                0.5215      1.093793361012
 s    1 1.00
                0.1596                   1
 p    3 1.00
                 9.439   0.056979251590039
                 2.002    0.31320721150073
                0.5456    0.76037674173753
 p    1 1.00
                0.1517                   1
 d    1 1.00
                  0.55                   1

12 0
 s    8 1.00
                 11720  0.00070964594651845
                  1759  0.0054672722921914
                 400.8   0.027823118610189
                 113.7    0.10474773971146
                 37.03    0.28292084635691
                 13.27    0.44849523869833
                 5.025    0.27081688521277
                 1.013    0.01545029160744
 s    8 1.00
                 11720  -0.00031444341168873
                  1759  -0.0024821376810179
                 400.8  -0.012316355381583
                 113.7  -0.050538917343672
                 37.03   -0.13938490331632
                 13.27   -0.32507749481778
                 5.025   -0.22984830758785
                 1.013     1.0953793467883
 s    1 1.00
                0.3023                   1
 p    3 1.00
                  17.7   0.062679166281506
                 3.854    0.33353656587936
                 1.046    0.74123964163973
 p    1 1.00
                0.2753                   1
 d    1 1.00
                 1.185                   1

13 0
 s    3 1.00
                 13.01   0.033498726389998
                 1.962    0.23480080117413
                0.4446     0.8136829578829
 s    1 1.00
                 0.122                   1
 p    1 1.00
                 0.727                   1

14 0
 s    3 1.00
                 13.01   0.033498726389998
                 1.962    0.23480080117413
                0.4446     0.8136829578829
 s    1 1.00
                 0.122                   1
 p    1 1.00
                 0.727                   1

15 0
 s    3 1.00
                 13.01   0.033498726389998
                 1.962    0.23480080117413
                0.4446     0.8136829578829
 s    1 1.00
                 0.122                   1
 p    1 1.00
                 0.727                   1

16 0
 s    8 1.00
                 11720  0.00070964594651845
                  1759  0.0054672722921914
                 400.8   0.027823118610189
                 113.7    0.10474773971146
                 37.03    0.28292084635691
                 13.27    0.44849523869833
                 5.025    0.27081688521277
                 1.013    0.01545029160744
 s    8 1.00
                 11720  -0.00031444341168873
                  1759  -0.0024821376810179
                 400.8  -0.012316355381583
                 113.7  -0.050538917343672
                 37.03   -0.13938490331632
                 13.27   -0.32507749481778
                 5.025   -0.22984830758785
                 1.013     1.0953793467883
 s    1 1.00
                0.3023                   1
 p    3 1.00
                  17.7   0.062679166281506
                 3.854    0.33353656587936
                 1.046    0.74123964163973
 p    1 1.00
                0.2753                   1
 d    1 1.00
                 1.185                   1

17 0
 s    3 1.00
                 13.01   0.033498726389998
                 1.962    0.23480080117413
                0.4446     0.8136829578829
 s    1 1.00
                 0.122                   1
 p    1 1.00
                 0.727                   1

18 0
 s    3 1.00
                 13.01   0.033498726389998
                 1.962    0.23480080117413
                0.4446     0.8136829578829
 s    1 1.00
                 0.122                   1
 p    1 1.00
                 0.727                   1

19 0
 s    8 1.00
                 11720  0.00070964594651845
                  1759  0.0054672722921914
                 400.8   0.027823118610189
                 113.7    0.10474773971146
                 37.03    0.28292084635691
                 13.27    0.44849523869833
                 5.025    0.27081688521277
                 1.013    0.01545029160744
 s    8 1.00
                 11720  -0.00031444341168873
                  1759  -0.0024821376810179
                 400.8  -0.012316355381583
                 113.7  -0.050538917343672
                 37.03   -0.13938490331632
                 13.27   -0.32507749481778
                 5.025   -0.22984830758785
                 1.013     1.0953793467883
 s    1 1.00
                0.3023                   1
 p    3 1.00
                  17.7   0.062679166281506
                 3.854    0.33353656587936
                 1.046    0.74123964163973
 p    1 1.00
                0.2753                   1
 d    1 1.00
                 1.185                   1

20 0
 s    3 1.00
                 13.01   0.033498726389998
                 1.962    0.23480080117413
                0.4446     0.8136829578829
 s    1 1.00
                 0.122                   1
 p    1 1.00
                 0.727                   1

21 0
 s    3 1.00
                 13.01   0.033498726389998
                 1.962    0.23480080117413
                0.4446     0.8136829578829
 s    1 1.00
                 0.122                   1
 p    1 1.00
                 0.727                   1

22 0
 s    3 1.00
                 13.01   0.033498726389998
                 1.962    0.23480080117413
                0.4446     0.8136829578829
 s    1 1.00
                 0.122                   1
 p    1 1.00
                 0.727                   1

23 0
 s    3 1.00
                 13.01   0.033498726389998
                 1.962    0.23480080117413
                0.4446     0.8136829578829
 s    1 1.00
                 0.122                   1
 p    1 1.00
                 0.727                   1

24 0
 s    3 1.00
                 13.01   0.033498726389998
                 1.962    0.23480080117413
                0.4446     0.8136829578829
 s    1 1.00
                 0.122                   1
 p    1 1.00
                 0.727                   1

[5d]
[7f]
[9g]

[MO]
 Sym= A
 Ene=     -20.5989454
 Spin= Alpha
 Occup=    2.00000
   1    -5.6756717405566e-05
   2    -0.00031953871904078
   3    -0.00062116983094874
   4    0.00076125755187257
   5    0.00046015086430178
   6    -0.00012678630523147
   7    0.00087831443641341
   8    -0.00085134310585603
   9    -0.0010465203876514
  10    -0.00023977088883487
  11    0.0001096461232409
  12    0.00014282677503594
  13    -0.00012778885066084
  14    5.3708695969317e-05
  15    0.00013771298781611
  16    0.00012259204989071
  17    -0.001478444421962
  18    0.00028270668106804
  19    0.00014344815738494
  20    7.2193648615406e-05
  21    0.00067389311740543
  22    -3.5920125978157e-05
  23    -5.2584648605924e-05
  24    1.3507823537221e-05
  25    2.5301636343423e-07
  26    1.1562294056512e-05
  27    -6.3377683134521e-05
  28    2.5651822708035e-05
  29    -9.5982802209455e-06
  30    -0.00083315999934346
  31    -0.0027400817570702
  32    0.00085277563111803
  33    0.00072334484858446
  34    0.0010648121249537
  35    0.0044426452454208
  36    -0.0036338977070575
  37    0.0010704618653077
  38    -0.00032558363362743
  39    -0.00034194653752817
  40    0.00011842043715279
  41    -0.0003294827798906
  42    0.00040742277708587
  43    -4.9037957319357e-05
  44    -0.00024604556874393
  45    -0.00022012302301655
  46    0.00017077684340226
  47    0.00032359729796097
  48    0.00031199937983522
  49    -0.00085468106159207
  50    0.00042169642368663
  51    0.0015877588062096
  52    -4.5957649774157e-05
  53    -5.9892704327855e-05
  54    1.7473455305408e-06
  55    -9.8286377822891e-07
  56    -7.2158710419688e-07
  57    -2.6707853816336e-06
  58    -1.5887272503859e-05
  59    -0.0059671714548017
  60    0.0024796593077766
  61    0.0005559811561093
  62    -0.00091013297771543
  63    0.0032575222254817
  64     0.010049698380208
  65    -0.0089982109995436
  66    -0.00055119899080174
  67    0.00011160395205445
  68    0.00057964605229655
  69    0.00017632313637944
  70    -0.00049531030284092
  71    0.00033678538589419
  72    -0.0044614971084379
  73    1.2498387958479e-05
  74    -0.0003432857211569
  75    0.00023059795665916
  76    -0.0027564952622023
  77    -0.010619284908036
  78    0.0061542554804893
  79    0.0092501727958233
  80    0.0091217511877074
  81    0.0032933444351928
  82     0.012487364695038
  83    -0.020161838463295
  84     0.016076929231125
  85    0.00013221073228087
  86    0.0004586130221536
  87    0.00013070573899715
  88    -0.00015878214117189
  89    -0.0014707687658195
  90    0.0013684610728839
  91    0.0015875905244029
  92    -0.014423134887961
  93    -0.00031006517277388
  94    0.0017659502371723
  95    -0.00013980651370243
  96    -0.00044632505060044
  97    0.00012565949245982
  98    0.0053827448962974
  99    -0.0002032347291255
 100    -0.00031847852758911
 101    -0.00012495820756875
 102    -9.3068785601202e-05
 103    -0.00012240392786194
 104    -0.00020626902813694
 105     -0.02345258029805
 106    -0.057159878015489
 107    0.0052150755271167
 108     0.040183767947393
 109    -0.010490525877028
 110    0.0086238932478262
 111     0.056871578148009
 112     -0.01537095507155
 113    -0.0055020600636368
 114    0.0015312723944628
 115     0.013092494114273
 116    -0.005813644993083
 117    -0.016978123990223
 118     0.027574143667081
 119      0.02768446824782
 120    -0.0013684879205044
 121    -0.0018370980101668
 122    0.0018194519987625
 123    -0.0016978387396651
 124    -0.0080943620589405
 125    -0.0046622601513713
 126    -0.0061420134472897
 127    0.0084924075215138
 128    -0.0035239985015374
 129    -0.0096693800964721
 130     -0.01825501485869
 131      0.00404956238914
 132    0.00037041670721955
 133    0.00018364117925814
 134    0.0012006563140732
 135    0.00064414198983108
 136    -0.00020460574701436
 137    0.00085480519769581
 138    0.0017164432897038
 139    -0.0075407992037464
 140    0.0014156092137849
 141    -0.0010625185450065
 142    0.00051531585477028
 143    -0.0024016492610837
 144    0.0011526988449213
 145    0.00018510804226862
 146    6.9986235688893e-05
 147    -0.00012142777798729
 148    0.00018673564008058
 149    -0.00011651566625646
 150    0.00015229502931398
 151    0.00012930057585137
 152    -2.3281101700875e-05
 153    6.6520851148715e-05
 154    5.8462576151847e-05
 155    6.0599467394826e-05
 156    0.00096098373818424
 157    0.0030357026034303
 158    -6.5443172814255e-05
 159    3.9950610530255e-05
 160    4.2736426481297e-05
 161    -0.00035333896071618
 162    -0.0029771112106957
 163    -1.748995998244e-05
 164    -4.2050809358353e-06
 165    0.0002551558007595
 166    -0.0013537967979154
 167    -0.0061807088222747
 168    -0.0042266057900982
 169     0.012708927059085
 170    0.0018292141051408
 171    -0.0067279290579543
 172     0.012088894727041
 173    0.0064965762501043
 174    -0.0053715511870339
 175    -0.00078834341649576
 176    -0.00087949043101384
 177    -0.00022765259299039
 178    0.0015066914198128
 179    0.00066138763848268
 180    0.0044780541476235
 181    0.0057427628029914
 182    0.00061743328691552
 183    0.00021323342057189
 184    -0.00047679656284646
 185    -0.00042227753188071
 186    -0.0029012058731726
 187    0.00073691873010794
 188    -0.00059677425060241
 189    -0.00067574648698121
 190    -0.0073659137718027
 191      0.22631438310711
 192      0.16896533471199
 193      0.29320933316478
 194     -0.22103400788103
 195     -0.21347197502341
 196      0.14473121360448
 197    -0.095203919463751
 198     -0.10935650971697
 199    0.0019671822975953
 200    -0.013116093769031
 201    0.0051121744758465
 202      0.01042653263888
 203    -0.0056600795246492
 204    -0.004747871793092
 205      0.00580464469113
 206    0.00071814447406543
 207    -0.00022719269950887
 208    0.00036233771193634
 209     0.004734394324483
 210     0.008847466471232
 211    -0.00035592757579319
 212    -0.00053426960746987
 213    -0.00054118775328441
 214    0.00097011650763278
 215    -0.0040855542824242
 216    -0.00044111513779425
 217    0.00034287647081373
 218    -0.0010447163050868
 219    0.0012053454832884
 220    0.0053842360674654
 221    0.00085722935757869
 222    0.00043160097159881
 223    -0.00075564253251933
 224       0.4058030340811
 225      0.05782666215998
 226     -0.04426066367633
 227     0.031492801275084
 228     0.030508701289456
