[Molden Format]
made by pyscf v[2.1.0]
[Atoms] (AU)
C   1   6     5.80518952178463     0.50358555603085    -2.01447450495210
O   2   8     7.59006230260208    -0.90749372816926    -2.10619425213399
C   3   6     4.06257668629083     0.88716594424731     0.25526042545400
O   4   8     4.92221121062936    -0.52198770903186     2.35899047472156
C   5   6     1.33654470639501     0.10405776904918    -0.51168492220073
H   6   1     0.89689425433657     0.93209418285884    -2.36575758397362
C   7   6    -0.64932879366180     1.09909683939116     1.38333243551311
O   8   8    -0.00969996419739     0.43834276158024     3.94911375031970
C   9   6    -3.35971006179398     0.18432766564233     0.79610193203064
H   10   1    -4.66165577257433     1.18213140530455     2.06285149374097
C   11   6    -4.19715353225174     0.65517938574345    -1.93554631390739
O   12   8    -6.81065988033421     0.10526341431665    -2.27483908066855
H   13   1     5.22581272007586     1.68491382773245    -3.67455355195552
H   14   1     4.03225036144381     2.94522509253638     0.63780524375420
H   15   1     3.63813663980902    -0.25163782047321     3.65830001755813
O   16   8     1.20169573987217    -2.59733407190845    -0.80186748643669
H   17   1    -0.61314809728088     3.17348700084872     1.28243995772258
H   18   1    -0.91242591335437    -1.12422074821725     4.30347519319814
O   19   8    -3.63012231131474    -2.45370354808476     1.43919651920751
H   20   1    -3.01998643747642    -0.49263081368674    -3.22017268475610
H   21   1    -3.94341055687576     2.65625195302014    -2.42398382532372
H   22   1    -7.07185971499772    -1.58002646891459    -1.60535635788826
H   23   1     2.47305434360030    -3.30624782000391     0.32275766317121
H   24   1    -2.30526934045242    -3.31584195953833     0.48480734753104
[GTO]
1 0
 s    8 1.00
                  6665  0.00069158396281299
                  1000  0.0053257961529341
                   228   0.027060721042034
                 64.71    0.10165684614077
                 21.06     0.2745748236174
                 7.495    0.44829431892377
                 2.797    0.28490261071525
                0.5215   0.015194859206082
 s    8 1.00
                  6665  -0.00029326965268655
                  1000  -0.0023180354739745
                   228  -0.011499786038565
                 64.71  -0.046826727009787
                 21.06   -0.12846616875047
                 7.495   -0.30126627246289
                 2.797   -0.25563070233011
                0.5215      1.093793361012
 s    1 1.00
                0.1596                   1
 p    3 1.00
                 9.439   0.056979251590039
                 2.002    0.31320721150073
                0.5456    0.76037674173753
 p    1 1.00
                0.1517                   1
 d    1 1.00
                  0.55                   1

2 0
 s    8 1.00
                 11720  0.00070964594651845
                  1759  0.0054672722921914
                 400.8   0.027823118610189
                 113.7    0.10474773971146
                 37.03    0.28292084635691
                 13.27    0.44849523869833
                 5.025    0.27081688521277
                 1.013    0.01545029160744
 s    8 1.00
                 11720  -0.00031444341168873
                  1759  -0.0024821376810179
                 400.8  -0.012316355381583
                 113.7  -0.050538917343672
                 37.03   -0.13938490331632
                 13.27   -0.32507749481778
                 5.025   -0.22984830758785
                 1.013     1.0953793467883
 s    1 1.00
                0.3023                   1
 p    3 1.00
                  17.7   0.062679166281506
                 3.854    0.33353656587936
                 1.046    0.74123964163973
 p    1 1.00
                0.2753                   1
 d    1 1.00
                 1.185                   1

3 0
 s    8 1.00
                  6665  0.00069158396281299
                  1000  0.0053257961529341
                   228   0.027060721042034
                 64.71    0.10165684614077
                 21.06     0.2745748236174
                 7.495    0.44829431892377
                 2.797    0.28490261071525
                0.5215   0.015194859206082
 s    8 1.00
                  6665  -0.00029326965268655
                  1000  -0.0023180354739745
                   228  -0.011499786038565
                 64.71  -0.046826727009787
                 21.06   -0.12846616875047
                 7.495   -0.30126627246289
                 2.797   -0.25563070233011
                0.5215      1.093793361012
 s    1 1.00
                0.1596                   1
 p    3 1.00
                 9.439   0.056979251590039
                 2.002    0.31320721150073
                0.5456    0.76037674173753
 p    1 1.00
                0.1517                   1
 d    1 1.00
                  0.55                   1

4 0
 s    8 1.00
                 11720  0.00070964594651845
                  1759  0.0054672722921914
                 400.8   0.027823118610189
                 113.7    0.10474773971146
                 37.03    0.28292084635691
                 13.27    0.44849523869833
                 5.025    0.27081688521277
                 1.013    0.01545029160744
 s    8 1.00
                 11720  -0.00031444341168873
                  1759  -0.0024821376810179
                 400.8  -0.012316355381583
                 113.7  -0.050538917343672
                 37.03   -0.13938490331632
                 13.27   -0.32507749481778
                 5.025   -0.22984830758785
                 1.013     1.0953793467883
 s    1 1.00
                0.3023                   1
 p    3 1.00
                  17.7   0.062679166281506
                 3.854    0.33353656587936
                 1.046    0.74123964163973
 p    1 1.00
                0.2753                   1
 d    1 1.00
                 1.185                   1

5 0
 s    8 1.00
                  6665  0.00069158396281299
                  1000  0.0053257961529341
                   228   0.027060721042034
                 64.71    0.10165684614077
                 21.06     0.2745748236174
                 7.495    0.44829431892377
                 2.797    0.28490261071525
                0.5215   0.015194859206082
 s    8 1.00
                  6665  -0.00029326965268655
                  1000  -0.0023180354739745
                   228  -0.011499786038565
                 64.71  -0.046826727009787
                 21.06   -0.12846616875047
                 7.495   -0.30126627246289
                 2.797   -0.25563070233011
                0.5215      1.093793361012
 s    1 1.00
                0.1596                   1
 p    3 1.00
                 9.439   0.056979251590039
                 2.002    0.31320721150073
                0.5456    0.76037674173753
 p    1 1.00
                0.1517                   1
 d    1 1.00
                  0.55                   1

6 0
 s    3 1.00
                 13.01   0.033498726389998
                 1.962    0.23480080117413
                0.4446     0.8136829578829
 s    1 1.00
                 0.122                   1
 p    1 1.00
                 0.727                   1

7 0
 s    8 1.00
                  6665  0.00069158396281299
                  1000  0.0053257961529341
                   228   0.027060721042034
                 64.71    0.10165684614077
                 21.06     0.2745748236174
                 7.495    0.44829431892377
                 2.797    0.28490261071525
                0.5215   0.015194859206082
 s    8 1.00
                  6665  -0.00029326965268655
                  1000  -0.0023180354739745
                   228  -0.011499786038565
                 64.71  -0.046826727009787
                 21.06   -0.12846616875047
                 7.495   -0.30126627246289
                 2.797   -0.25563070233011
                0.5215      1.093793361012
 s    1 1.00
                0.1596                   1
 p    3 1.00
                 9.439   0.056979251590039
                 2.002    0.31320721150073
                0.5456    0.76037674173753
 p    1 1.00
                0.1517                   1
 d    1 1.00
                  0.55                   1

8 0
 s    8 1.00
                 11720  0.00070964594651845
                  1759  0.0054672722921914
                 400.8   0.027823118610189
                 113.7    0.10474773971146
                 37.03    0.28292084635691
                 13.27    0.44849523869833
                 5.025    0.27081688521277
                 1.013    0.01545029160744
 s    8 1.00
                 11720  -0.00031444341168873
                  1759  -0.0024821376810179
                 400.8  -0.012316355381583
                 113.7  -0.050538917343672
                 37.03   -0.13938490331632
                 13.27   -0.32507749481778
                 5.025   -0.22984830758785
                 1.013     1.0953793467883
 s    1 1.00
                0.3023                   1
 p    3 1.00
                  17.7   0.062679166281506
                 3.854    0.33353656587936
                 1.046    0.74123964163973
 p    1 1.00
                0.2753                   1
 d    1 1.00
                 1.185                   1

9 0
 s    8 1.00
                  6665  0.00069158396281299
                  1000  0.0053257961529341
                   228   0.027060721042034
                 64.71    0.10165684614077
                 21.06     0.2745748236174
                 7.495    0.44829431892377
                 2.797    0.28490261071525
                0.5215   0.015194859206082
 s    8 1.00
                  6665  -0.00029326965268655
                  1000  -0.0023180354739745
                   228  -0.011499786038565
                 64.71  -0.046826727009787
                 21.06   -0.12846616875047
                 7.495   -0.30126627246289
                 2.797   -0.25563070233011
                0.5215      1.093793361012
 s    1 1.00
                0.1596                   1
 p    3 1.00
                 9.439   0.056979251590039
                 2.002    0.31320721150073
                0.5456    0.76037674173753
 p    1 1.00
                0.1517                   1
 d    1 1.00
                  0.55                   1

10 0
 s    3 1.00
                 13.01   0.033498726389998
                 1.962    0.23480080117413
                0.4446     0.8136829578829
 s    1 1.00
                 0.122                   1
 p    1 1.00
                 0.727                   1

11 0
 s    8 1.00
                  6665  0.00069158396281299
                  1000  0.0053257961529341
                   228   0.027060721042034
                 64.71    0.10165684614077
                 21.06     0.2745748236174
                 7.495    0.44829431892377
                 2.797    0.28490261071525
                0.5215   0.015194859206082
 s    8 1.00
                  6665  -0.00029326965268655
                  1000  -0.0023180354739745
                   228  -0.011499786038565
                 64.71  -0.046826727009787
                 21.06   -0.12846616875047
                 7.495   -0.30126627246289
                 2.797   -0.25563070233011
                0.5215      1.093793361012
 s    1 1.00
                0.1596                   1
 p    3 1.00
                 9.439   0.056979251590039
                 2.002    0.31320721150073
                0.5456    0.76037674173753
 p    1 1.00
                0.1517                   1
 d    1 1.00
                  0.55                   1

12 0
 s    8 1.00
                 11720  0.00070964594651845
                  1759  0.0054672722921914
                 400.8   0.027823118610189
                 113.7    0.10474773971146
                 37.03    0.28292084635691
                 13.27    0.44849523869833
                 5.025    0.27081688521277
                 1.013    0.01545029160744
 s    8 1.00
                 11720  -0.00031444341168873
                  1759  -0.0024821376810179
                 400.8  -0.012316355381583
                 113.7  -0.050538917343672
                 37.03   -0.13938490331632
                 13.27   -0.32507749481778
                 5.025   -0.22984830758785
                 1.013     1.0953793467883
 s    1 1.00
                0.3023                   1
 p    3 1.00
                  17.7   0.062679166281506
                 3.854    0.33353656587936
                 1.046    0.74123964163973
 p    1 1.00
                0.2753                   1
 d    1 1.00
                 1.185                   1

13 0
 s    3 1.00
                 13.01   0.033498726389998
                 1.962    0.23480080117413
                0.4446     0.8136829578829
 s    1 1.00
                 0.122                   1
 p    1 1.00
                 0.727                   1

14 0
 s    3 1.00
                 13.01   0.033498726389998
                 1.962    0.23480080117413
                0.4446     0.8136829578829
 s    1 1.00
                 0.122                   1
 p    1 1.00
                 0.727                   1

15 0
 s    3 1.00
                 13.01   0.033498726389998
                 1.962    0.23480080117413
                0.4446     0.8136829578829
 s    1 1.00
                 0.122                   1
 p    1 1.00
                 0.727                   1

16 0
 s    8 1.00
                 11720  0.00070964594651845
                  1759  0.0054672722921914
                 400.8   0.027823118610189
                 113.7    0.10474773971146
                 37.03    0.28292084635691
                 13.27    0.44849523869833
                 5.025    0.27081688521277
                 1.013    0.01545029160744
 s    8 1.00
                 11720  -0.00031444341168873
                  1759  -0.0024821376810179
                 400.8  -0.012316355381583
                 113.7  -0.050538917343672
                 37.03   -0.13938490331632
                 13.27   -0.32507749481778
                 5.025   -0.22984830758785
                 1.013     1.0953793467883
 s    1 1.00
                0.3023                   1
 p    3 1.00
                  17.7   0.062679166281506
                 3.854    0.33353656587936
                 1.046    0.74123964163973
 p    1 1.00
                0.2753                   1
 d    1 1.00
                 1.185                   1

17 0
 s    3 1.00
                 13.01   0.033498726389998
                 1.962    0.23480080117413
                0.4446     0.8136829578829
 s    1 1.00
                 0.122                   1
 p    1 1.00
                 0.727                   1

18 0
 s    3 1.00
                 13.01   0.033498726389998
                 1.962    0.23480080117413
                0.4446     0.8136829578829
 s    1 1.00
                 0.122                   1
 p    1 1.00
                 0.727                   1

19 0
 s    8 1.00
                 11720  0.00070964594651845
                  1759  0.0054672722921914
                 400.8   0.027823118610189
                 113.7    0.10474773971146
                 37.03    0.28292084635691
                 13.27    0.44849523869833
                 5.025    0.27081688521277
                 1.013    0.01545029160744
 s    8 1.00
                 11720  -0.00031444341168873
                  1759  -0.0024821376810179
                 400.8  -0.012316355381583
                 113.7  -0.050538917343672
                 37.03   -0.13938490331632
                 13.27   -0.32507749481778
                 5.025   -0.22984830758785
                 1.013     1.0953793467883
 s    1 1.00
                0.3023                   1
 p    3 1.00
                  17.7   0.062679166281506
                 3.854    0.33353656587936
                 1.046    0.74123964163973
 p    1 1.00
                0.2753                   1
 d    1 1.00
                 1.185                   1

20 0
 s    3 1.00
                 13.01   0.033498726389998
                 1.962    0.23480080117413
                0.4446     0.8136829578829
 s    1 1.00
                 0.122                   1
 p    1 1.00
                 0.727                   1

21 0
 s    3 1.00
                 13.01   0.033498726389998
                 1.962    0.23480080117413
                0.4446     0.8136829578829
 s    1 1.00
                 0.122                   1
 p    1 1.00
                 0.727                   1

22 0
 s    3 1.00
                 13.01   0.033498726389998
                 1.962    0.23480080117413
                0.4446     0.8136829578829
 s    1 1.00
                 0.122                   1
 p    1 1.00
                 0.727                   1

23 0
 s    3 1.00
                 13.01   0.033498726389998
                 1.962    0.23480080117413
                0.4446     0.8136829578829
 s    1 1.00
                 0.122                   1
 p    1 1.00
                 0.727                   1

24 0
 s    3 1.00
                 13.01   0.033498726389998
                 1.962    0.23480080117413
                0.4446     0.8136829578829
 s    1 1.00
                 0.122                   1
 p    1 1.00
                 0.727                   1

[5d]
[7f]
[9g]

[MO]
 Sym= A
 Ene=     -20.5989454
 Spin= Alpha
 Occup=    2.00000
   1    0.00036810896438435
   2     0.012647106430365
   3      0.04620626399996
   4    -0.0076492057363026
   5     0.011574114930737
   6    0.0092300213595216
   7    -0.0082956331905491
   8    -0.0065550806993871
   9    0.0053906515320051
  10    -0.00050259759145659
  11    -0.0010363968412108
  12    -0.00049490389160104
  13    -0.0028433276983216
  14    8.6933602536917e-06
  15    0.00098779634135876
  16    -0.0023444234711245
  17    -0.017208372349505
  18     0.002242311584846
  19    -0.008565929674358
  20    -0.0024907954313271
  21    0.0062760617314692
  22    -0.007965497306049
  23    -0.0039732635479311
  24    0.0003901183641064
  25    -0.00013731530020826
  26    0.00013364866003307
  27    -0.00027789293309381
  28    0.00045038236247355
  29    0.0033607007877597
  30    0.0080110458104338
  31    -0.0073761759093895
  32    -0.0018891367074774
  33    -0.0032287171757315
  34     0.016785416225598
  35     0.013111965173635
  36    7.8185190511297e-05
  37    0.0045326157113646
  38    -0.0078570398514435
  39    -0.016429274520901
  40    -0.0014313083035996
  41    0.0036871596091241
  42    0.0020502228903827
  43    0.00045803010842845
  44    -0.0041842050569532
  45    -0.011913213081015
  46     0.005463896079431
  47    -0.0086933569932575
  48    0.0098373005475422
  49     0.010426063742116
  50    -0.0076393587949239
  51     0.013551435406547
  52    -5.025619790162e-05
  53    5.1843455316052e-05
  54    -0.00048519005608003
  55    5.6035557086774e-05
  56    5.2288756422393e-05
  57    0.0012935847211786
  58    0.0094189155732386
  59     0.052272990308984
  60     -0.12135052518757
  61    -0.025134965765761
  62      0.42513040176172
  63    -0.066965234373205
  64    -0.034172393759559
  65       0.1923252691819
  66    -0.0097279286115137
  67    -0.024091964639182
  68     0.021034477931192
  69    0.0068960052258808
  70    -0.0062199902155908
  71     -0.32645938072475
  72     -0.12525004697805
  73    -0.0083661568618987
  74    0.0083437852125865
  75    -0.016803941274322
  76    -0.001099646335541
  77       0.1684290378643
  78      0.10644916095837
  79      0.20193700489568
  80     -0.11523993441295
  81     -0.15643231476545
  82      0.10738240507834
  83     -0.03302871317475
  84    -0.063711588622537
  85    -0.0080252372969221
  86    -0.014157922455576
  87     0.010482618754157
  88    0.0090299759625845
  89    -0.012399551037487
  90    0.00014662979153136
  91    -0.0083761705054747
  92    -0.031579768182335
  93    -0.0011633753968384
  94    0.00085323473448517
  95     0.030056080139859
  96    -0.021368258577127
  97      0.01119433093243
  98      0.04587750916545
  99    0.0041315223683316
 100    -0.0026710844951069
 101    0.00048026488716827
 102    -0.00011934497887592
 103    0.0011159974429211
 104    -0.00085064892957439
 105    -0.0092029028262386
 106    0.00041003517912553
 107     -0.01747345555925
 108    -0.0095648173799558
 109    -0.0058349212786986
 110    -0.0019812496560795
 111    -0.0019973720201796
 112      0.01083379503599
 113    -0.0029065711030527
 114    -0.0058752617956705
 115    -0.0017770040041381
 116    0.0069711958312878
 117    -0.0037270919301163
 118     0.013186841641732
 119     0.027617088697989
 120    -1.5284779880781e-05
 121    0.00044627867730203
 122    0.00021452984374407
 123    0.0014636583620858
 124    0.0061698901066411
 125    0.0050156364910883
 126    0.0021986967931092
 127    0.00038988618384028
 128    -0.008055436729086
 129    -0.013022862714549
 130    0.00010588099764764
 131    -0.0015204456897324
 132    0.0010794820574818
 133    -0.00092491549814407
 134    -0.00082735269535798
 135    -0.0014878692831747
 136    -0.00041885696297055
 137    0.00066836319835221
 138    -0.00073373979025044
 139    -0.011102784661769
 140    -0.0038293426620357
 141    -0.00057493297528237
 142    -0.0007600992825176
 143    -0.0062787923507202
 144    -0.0025427615347336
 145    -0.00059208346685453
 146    -3.8224651368412e-06
 147    -0.00021671242472573
 148    -2.8225158677708e-05
 149    -1.6388753514808e-05
 150    7.9648854601668e-05
 151    0.0049733191631324
 152    0.00044984092563918
 153    0.00093831500742321
 154    0.00021167786542091
 155    0.0010284794053918
 156    -0.0029703724962838
 157    -0.0071176664679816
 158    -0.00010797550211538
 159    0.00017286315868561
 160    -0.00050391302444773
 161    -0.00078361264009832
 162     -0.01323490822232
 163    0.0017198732693608
 164    -0.00051954962641095
 165    0.0015046240953839
 166    0.0015760293152871
 167    0.0022309865759447
 168    -0.011049523851481
 169    0.0017175708643469
 170     0.000274370854829
 171    -0.0030738478780818
 172     0.018363711282304
 173    -0.014373933593372
 174    -0.038030421405676
 175    0.0012134411870307
 176    -0.00088656720687201
 177    0.0080988467186915
 178    0.0013570704079304
 179    -0.0015151096312422
 180    -0.012402813694581
 181    -0.036635019432519
 182     0.004573598881334
 183    -0.004168710423949
 184    -0.0034101761459348
 185    0.0033259024619666
 186    0.0020963706369499
 187    -0.00045882692694494
 188    0.00024839271646675
 189    0.0030914280607547
 190    0.00031732080507195
 191    -0.001384385715733
 192    -0.004311783852041
 193    -0.00021000350723917
 194    -0.0045063136481835
 195    0.0016320312965667
 196    -0.0023309064668917
 197    -0.0068669617521266
 198    -0.00039696083021548
 199    2.8967074938941e-05
 200    4.8831835615692e-05
 201    -0.00017066701132948
 202    0.00012771094852935
 203    -0.00064279357420244
 204    0.0064167580565056
 205      0.01263193320495
 206    -0.0012489380765018
 207    0.00020728683589239
 208    0.00018069121628456
 209    0.0052556860843275
 210     0.000651834748846
 211    0.00081069898524201
 212    -0.0001952707348132
 213    -0.00017047277405886
 214    0.00041338838444889
 215    -0.0016008496448333
 216    -0.00038377419555573
 217    -5.0362776067488e-05
 218     7.07785067134e-05
 219    -0.011520459069972
 220    -0.018975958123031
 221    0.0011767143978561
 222    0.0016734792158528
 223    -0.0018345282525765
 224    0.00069486368370994
 225    -0.0095995960768319
 226    -0.00066721056852786
 227    -0.00084874944152494
 228    -7.9777824781783e-05
