[Molden Format]
made by pyscf v[2.1.0]
[Atoms] (AU)
C   1   6     5.80518952178463     0.50358555603085    -2.01447450495210
O   2   8     7.59006230260208    -0.90749372816926    -2.10619425213399
C   3   6     4.06257668629083     0.88716594424731     0.25526042545400
O   4   8     4.92221121062936    -0.52198770903186     2.35899047472156
C   5   6     1.33654470639501     0.10405776904918    -0.51168492220073
H   6   1     0.89689425433657     0.93209418285884    -2.36575758397362
C   7   6    -0.64932879366180     1.09909683939116     1.38333243551311
O   8   8    -0.00969996419739     0.43834276158024     3.94911375031970
C   9   6    -3.35971006179398     0.18432766564233     0.79610193203064
H   10   1    -4.66165577257433     1.18213140530455     2.06285149374097
C   11   6    -4.19715353225174     0.65517938574345    -1.93554631390739
O   12   8    -6.81065988033421     0.10526341431665    -2.27483908066855
H   13   1     5.22581272007586     1.68491382773245    -3.67455355195552
H   14   1     4.03225036144381     2.94522509253638     0.63780524375420
H   15   1     3.63813663980902    -0.25163782047321     3.65830001755813
O   16   8     1.20169573987217    -2.59733407190845    -0.80186748643669
H   17   1    -0.61314809728088     3.17348700084872     1.28243995772258
H   18   1    -0.91242591335437    -1.12422074821725     4.30347519319814
O   19   8    -3.63012231131474    -2.45370354808476     1.43919651920751
H   20   1    -3.01998643747642    -0.49263081368674    -3.22017268475610
H   21   1    -3.94341055687576     2.65625195302014    -2.42398382532372
H   22   1    -7.07185971499772    -1.58002646891459    -1.60535635788826
H   23   1     2.47305434360030    -3.30624782000391     0.32275766317121
H   24   1    -2.30526934045242    -3.31584195953833     0.48480734753104
[GTO]
1 0
 s    8 1.00
                  6665  0.00069158396281299
                  1000  0.0053257961529341
                   228   0.027060721042034
                 64.71    0.10165684614077
                 21.06     0.2745748236174
                 7.495    0.44829431892377
                 2.797    0.28490261071525
                0.5215   0.015194859206082
 s    8 1.00
                  6665  -0.00029326965268655
                  1000  -0.0023180354739745
                   228  -0.011499786038565
                 64.71  -0.046826727009787
                 21.06   -0.12846616875047
                 7.495   -0.30126627246289
                 2.797   -0.25563070233011
                0.5215      1.093793361012
 s    1 1.00
                0.1596                   1
 p    3 1.00
                 9.439   0.056979251590039
                 2.002    0.31320721150073
                0.5456    0.76037674173753
 p    1 1.00
                0.1517                   1
 d    1 1.00
                  0.55                   1

2 0
 s    8 1.00
                 11720  0.00070964594651845
                  1759  0.0054672722921914
                 400.8   0.027823118610189
                 113.7    0.10474773971146
                 37.03    0.28292084635691
                 13.27    0.44849523869833
                 5.025    0.27081688521277
                 1.013    0.01545029160744
 s    8 1.00
                 11720  -0.00031444341168873
                  1759  -0.0024821376810179
                 400.8  -0.012316355381583
                 113.7  -0.050538917343672
                 37.03   -0.13938490331632
                 13.27   -0.32507749481778
                 5.025   -0.22984830758785
                 1.013     1.0953793467883
 s    1 1.00
                0.3023                   1
 p    3 1.00
                  17.7   0.062679166281506
                 3.854    0.33353656587936
                 1.046    0.74123964163973
 p    1 1.00
                0.2753                   1
 d    1 1.00
                 1.185                   1

3 0
 s    8 1.00
                  6665  0.00069158396281299
                  1000  0.0053257961529341
                   228   0.027060721042034
                 64.71    0.10165684614077
                 21.06     0.2745748236174
                 7.495    0.44829431892377
                 2.797    0.28490261071525
                0.5215   0.015194859206082
 s    8 1.00
                  6665  -0.00029326965268655
                  1000  -0.0023180354739745
                   228  -0.011499786038565
                 64.71  -0.046826727009787
                 21.06   -0.12846616875047
                 7.495   -0.30126627246289
                 2.797   -0.25563070233011
                0.5215      1.093793361012
 s    1 1.00
                0.1596                   1
 p    3 1.00
                 9.439   0.056979251590039
                 2.002    0.31320721150073
                0.5456    0.76037674173753
 p    1 1.00
                0.1517                   1
 d    1 1.00
                  0.55                   1

4 0
 s    8 1.00
                 11720  0.00070964594651845
                  1759  0.0054672722921914
                 400.8   0.027823118610189
                 113.7    0.10474773971146
                 37.03    0.28292084635691
                 13.27    0.44849523869833
                 5.025    0.27081688521277
                 1.013    0.01545029160744
 s    8 1.00
                 11720  -0.00031444341168873
                  1759  -0.0024821376810179
                 400.8  -0.012316355381583
                 113.7  -0.050538917343672
                 37.03   -0.13938490331632
                 13.27   -0.32507749481778
                 5.025   -0.22984830758785
                 1.013     1.0953793467883
 s    1 1.00
                0.3023                   1
 p    3 1.00
                  17.7   0.062679166281506
                 3.854    0.33353656587936
                 1.046    0.74123964163973
 p    1 1.00
                0.2753                   1
 d    1 1.00
                 1.185                   1

5 0
 s    8 1.00
                  6665  0.00069158396281299
                  1000  0.0053257961529341
                   228   0.027060721042034
                 64.71    0.10165684614077
                 21.06     0.2745748236174
                 7.495    0.44829431892377
                 2.797    0.28490261071525
                0.5215   0.015194859206082
 s    8 1.00
                  6665  -0.00029326965268655
                  1000  -0.0023180354739745
                   228  -0.011499786038565
                 64.71  -0.046826727009787
                 21.06   -0.12846616875047
                 7.495   -0.30126627246289
                 2.797   -0.25563070233011
                0.5215      1.093793361012
 s    1 1.00
                0.1596                   1
 p    3 1.00
                 9.439   0.056979251590039
                 2.002    0.31320721150073
                0.5456    0.76037674173753
 p    1 1.00
                0.1517                   1
 d    1 1.00
                  0.55                   1

6 0
 s    3 1.00
                 13.01   0.033498726389998
                 1.962    0.23480080117413
                0.4446     0.8136829578829
 s    1 1.00
                 0.122                   1
 p    1 1.00
                 0.727                   1

7 0
 s    8 1.00
                  6665  0.00069158396281299
                  1000  0.0053257961529341
                   228   0.027060721042034
                 64.71    0.10165684614077
                 21.06     0.2745748236174
                 7.495    0.44829431892377
                 2.797    0.28490261071525
                0.5215   0.015194859206082
 s    8 1.00
                  6665  -0.00029326965268655
                  1000  -0.0023180354739745
                   228  -0.011499786038565
                 64.71  -0.046826727009787
                 21.06   -0.12846616875047
                 7.495   -0.30126627246289
                 2.797   -0.25563070233011
                0.5215      1.093793361012
 s    1 1.00
                0.1596                   1
 p    3 1.00
                 9.439   0.056979251590039
                 2.002    0.31320721150073
                0.5456    0.76037674173753
 p    1 1.00
                0.1517                   1
 d    1 1.00
                  0.55                   1

8 0
 s    8 1.00
                 11720  0.00070964594651845
                  1759  0.0054672722921914
                 400.8   0.027823118610189
                 113.7    0.10474773971146
                 37.03    0.28292084635691
                 13.27    0.44849523869833
                 5.025    0.27081688521277
                 1.013    0.01545029160744
 s    8 1.00
                 11720  -0.00031444341168873
                  1759  -0.0024821376810179
                 400.8  -0.012316355381583
                 113.7  -0.050538917343672
                 37.03   -0.13938490331632
                 13.27   -0.32507749481778
                 5.025   -0.22984830758785
                 1.013     1.0953793467883
 s    1 1.00
                0.3023                   1
 p    3 1.00
                  17.7   0.062679166281506
                 3.854    0.33353656587936
                 1.046    0.74123964163973
 p    1 1.00
                0.2753                   1
 d    1 1.00
                 1.185                   1

9 0
 s    8 1.00
                  6665  0.00069158396281299
                  1000  0.0053257961529341
                   228   0.027060721042034
                 64.71    0.10165684614077
                 21.06     0.2745748236174
                 7.495    0.44829431892377
                 2.797    0.28490261071525
                0.5215   0.015194859206082
 s    8 1.00
                  6665  -0.00029326965268655
                  1000  -0.0023180354739745
                   228  -0.011499786038565
                 64.71  -0.046826727009787
                 21.06   -0.12846616875047
                 7.495   -0.30126627246289
                 2.797   -0.25563070233011
                0.5215      1.093793361012
 s    1 1.00
                0.1596                   1
 p    3 1.00
                 9.439   0.056979251590039
                 2.002    0.31320721150073
                0.5456    0.76037674173753
 p    1 1.00
                0.1517                   1
 d    1 1.00
                  0.55                   1

10 0
 s    3 1.00
                 13.01   0.033498726389998
                 1.962    0.23480080117413
                0.4446     0.8136829578829
 s    1 1.00
                 0.122                   1
 p    1 1.00
                 0.727                   1

11 0
 s    8 1.00
                  6665  0.00069158396281299
                  1000  0.0053257961529341
                   228   0.027060721042034
                 64.71    0.10165684614077
                 21.06     0.2745748236174
                 7.495    0.44829431892377
                 2.797    0.28490261071525
                0.5215   0.015194859206082
 s    8 1.00
                  6665  -0.00029326965268655
                  1000  -0.0023180354739745
                   228  -0.011499786038565
                 64.71  -0.046826727009787
                 21.06   -0.12846616875047
                 7.495   -0.30126627246289
                 2.797   -0.25563070233011
                0.5215      1.093793361012
 s    1 1.00
                0.1596                   1
 p    3 1.00
                 9.439   0.056979251590039
                 2.002    0.31320721150073
                0.5456    0.76037674173753
 p    1 1.00
                0.1517                   1
 d    1 1.00
                  0.55                   1

12 0
 s    8 1.00
                 11720  0.00070964594651845
                  1759  0.0054672722921914
                 400.8   0.027823118610189
                 113.7    0.10474773971146
                 37.03    0.28292084635691
                 13.27    0.44849523869833
                 5.025    0.27081688521277
                 1.013    0.01545029160744
 s    8 1.00
                 11720  -0.00031444341168873
                  1759  -0.0024821376810179
                 400.8  -0.012316355381583
                 113.7  -0.050538917343672
                 37.03   -0.13938490331632
                 13.27   -0.32507749481778
                 5.025   -0.22984830758785
                 1.013     1.0953793467883
 s    1 1.00
                0.3023                   1
 p    3 1.00
                  17.7   0.062679166281506
                 3.854    0.33353656587936
                 1.046    0.74123964163973
 p    1 1.00
                0.2753                   1
 d    1 1.00
                 1.185                   1

13 0
 s    3 1.00
                 13.01   0.033498726389998
                 1.962    0.23480080117413
                0.4446     0.8136829578829
 s    1 1.00
                 0.122                   1
 p    1 1.00
                 0.727                   1

14 0
 s    3 1.00
                 13.01   0.033498726389998
                 1.962    0.23480080117413
                0.4446     0.8136829578829
 s    1 1.00
                 0.122                   1
 p    1 1.00
                 0.727                   1

15 0
 s    3 1.00
                 13.01   0.033498726389998
                 1.962    0.23480080117413
                0.4446     0.8136829578829
 s    1 1.00
                 0.122                   1
 p    1 1.00
                 0.727                   1

16 0
 s    8 1.00
                 11720  0.00070964594651845
                  1759  0.0054672722921914
                 400.8   0.027823118610189
                 113.7    0.10474773971146
                 37.03    0.28292084635691
                 13.27    0.44849523869833
                 5.025    0.27081688521277
                 1.013    0.01545029160744
 s    8 1.00
                 11720  -0.00031444341168873
                  1759  -0.0024821376810179
                 400.8  -0.012316355381583
                 113.7  -0.050538917343672
                 37.03   -0.13938490331632
                 13.27   -0.32507749481778
                 5.025   -0.22984830758785
                 1.013     1.0953793467883
 s    1 1.00
                0.3023                   1
 p    3 1.00
                  17.7   0.062679166281506
                 3.854    0.33353656587936
                 1.046    0.74123964163973
 p    1 1.00
                0.2753                   1
 d    1 1.00
                 1.185                   1

17 0
 s    3 1.00
                 13.01   0.033498726389998
                 1.962    0.23480080117413
                0.4446     0.8136829578829
 s    1 1.00
                 0.122                   1
 p    1 1.00
                 0.727                   1

18 0
 s    3 1.00
                 13.01   0.033498726389998
                 1.962    0.23480080117413
                0.4446     0.8136829578829
 s    1 1.00
                 0.122                   1
 p    1 1.00
                 0.727                   1

19 0
 s    8 1.00
                 11720  0.00070964594651845
                  1759  0.0054672722921914
                 400.8   0.027823118610189
                 113.7    0.10474773971146
                 37.03    0.28292084635691
                 13.27    0.44849523869833
                 5.025    0.27081688521277
                 1.013    0.01545029160744
 s    8 1.00
                 11720  -0.00031444341168873
                  1759  -0.0024821376810179
                 400.8  -0.012316355381583
                 113.7  -0.050538917343672
                 37.03   -0.13938490331632
                 13.27   -0.32507749481778
                 5.025   -0.22984830758785
                 1.013     1.0953793467883
 s    1 1.00
                0.3023                   1
 p    3 1.00
                  17.7   0.062679166281506
                 3.854    0.33353656587936
                 1.046    0.74123964163973
 p    1 1.00
                0.2753                   1
 d    1 1.00
                 1.185                   1

20 0
 s    3 1.00
                 13.01   0.033498726389998
                 1.962    0.23480080117413
                0.4446     0.8136829578829
 s    1 1.00
                 0.122                   1
 p    1 1.00
                 0.727                   1

21 0
 s    3 1.00
                 13.01   0.033498726389998
                 1.962    0.23480080117413
                0.4446     0.8136829578829
 s    1 1.00
                 0.122                   1
 p    1 1.00
                 0.727                   1

22 0
 s    3 1.00
                 13.01   0.033498726389998
                 1.962    0.23480080117413
                0.4446     0.8136829578829
 s    1 1.00
                 0.122                   1
 p    1 1.00
                 0.727                   1

23 0
 s    3 1.00
                 13.01   0.033498726389998
                 1.962    0.23480080117413
                0.4446     0.8136829578829
 s    1 1.00
                 0.122                   1
 p    1 1.00
                 0.727                   1

24 0
 s    3 1.00
                 13.01   0.033498726389998
                 1.962    0.23480080117413
                0.4446     0.8136829578829
 s    1 1.00
                 0.122                   1
 p    1 1.00
                 0.727                   1

[5d]
[7f]
[9g]

[MO]
 Sym= A
 Ene=     -20.5989454
 Spin= Alpha
 Occup=    2.00000
   1    -0.0034995766660608
   2    -0.0089354301914752
   3     0.031423373728327
   4    0.0079533900156936
   5    0.0061631040047602
   6    -0.0018049339543018
   7    -0.0016638614350277
   8    -0.013015369852813
   9    0.0067332703455893
  10    -0.0016768832457451
  11    0.00028039656534064
  12    0.0012208931096973
  13    -0.0011609710678141
  14    0.0012760336932321
  15    0.0014124901607073
  16    0.00054810282122165
  17    -0.018468218950302
  18    0.0043026029644901
  19    0.00056182638361116
  20    8.9394640045139e-05
  21    0.0081721137452493
  22    -0.0023099949586671
  23    -0.0020384469543676
  24    0.00012777397278232
  25    1.1448194201417e-05
  26    4.5402302582042e-05
  27    -0.00062914981707811
  28    0.00029726160838198
  29    -0.0020853155669319
  30    -0.022364732614492
  31    -0.035770414599633
  32     0.027962617822843
  33     0.014097547332543
  34     0.015535963555438
  35     0.018755232834099
  36    -0.0053627948063646
  37     0.023410602629493
  38    -0.0024669834998086
  39    0.00094698355257301
  40    0.00071435351795736
  41    -0.0021532953440012
  42    0.0012100805410508
  43    0.0005307238611989
  44    -0.0015715255881087
  45    -0.011523253154534
  46    -0.00020621903634041
  47    0.00053796569764307
  48    0.0046115904227809
  49    -0.0032446332902276
  50    -0.004452226999987
  51    0.0079437307910686
  52    -0.00045997274240371
  53    -0.000548054215122
  54    0.00066087289792928
  55    -0.00045602111638022
  56    0.0006466329850025
  57    0.0025939645684124
  58     0.027904171942258
  59     0.015609577812681
  60    -0.00076033786705825
  61    -0.035529165681722
  62    -0.0032456132590942
  63    -0.0049065414502113
  64    -0.020718357841355
  65    -0.002259336158972
  66     0.001892726525554
  67    -0.0060482762139616
  68     0.014670325029947
  69    -0.0028851867986718
  70    -0.027350474793896
  71    -0.010347138637555
  72    -0.020782250197645
  73    0.00023262085802457
  74    -0.0011265591883087
  75    2.6040716047716e-05
  76    0.0022486182456372
  77     0.028237911537302
  78     0.035004171102385
  79     0.026218547402956
  80    -0.025265478971854
  81    -0.026944137768671
  82     0.020059276109622
  83    0.0037188004639771
  84    -0.027996024489002
  85    0.00013400962901778
  86    0.00070564322858683
  87    0.0018982427959225
  88    0.0010172296955131
  89    -0.0023245203351881
  90    -0.00068037005648597
  91    -0.00062960840651295
  92    0.0088731727210736
  93    -0.0021850366347461
  94    -0.0036809936684941
  95    0.00074548207517987
  96    -0.0046471217982843
  97    -9.3798341405378e-05
  98    0.0033875274642659
  99    0.00067117185557588
 100    -0.00017758090184773
 101    1.8415209812145e-05
 102    0.00018473376972431
 103    0.00057317657425017
 104    0.00040835583485702
 105    0.0034660058675043
 106    0.0079313335833104
 107    0.0053820557264768
 108     -0.00120418605361
 109    -0.002270942393279
 110    0.0048828567898285
 111    -0.0093585459353085
 112     0.016163087094024
 113    -0.00039507517006069
 114    0.0014854190995053
 115    -0.0015071271138895
 116    -0.00010291959559401
 117    0.00038399004367406
 118     0.002811831175581
 119    0.0052243905512651
 120    0.00029719521700356
 121    0.00034131385211917
 122    -0.0013460390710568
 123    -0.00060670244019549
 124    0.0016633254162529
 125     0.015851510291401
 126    0.0036164432761745
 127    -0.003839961680404
 128    -0.0036342331058687
 129    -0.00067438751583615
 130    -0.0034835110877924
 131    0.0023162437773205
 132    -0.00016365775758323
 133    -9.6332712240701e-05
 134    0.00027729932935779
 135    4.2098528219355e-05
 136    9.9440412268115e-05
 137    0.0003779768782442
 138    0.00025044540966674
 139    -0.0046384006392553
 140    -0.0013858124498428
 141    -9.3747514344846e-05
 142    0.0010594492336788
 143    -0.0023430355220172
 144    -4.6687476292527e-05
 145    0.00058464294729359
 146    6.5243793736006e-05
 147    -0.00013958577447633
 148    3.4186049892047e-05
 149    4.4239582010365e-05
 150    -7.3295667641916e-05
 151    0.00053595768680369
 152    0.0061726559802535
 153    0.0010046265105138
 154    0.00043696099432298
 155    0.00051332690194515
 156     0.014347028896044
 157      0.02788380333876
 158    0.0020639289671574
 159    2.7443699485835e-05
 160    -0.00021310574149169
 161    0.0014016455919808
 162    -0.0073563255856211
 163    0.00016828506695646
 164    0.00043011593791617
 165    0.0010050920764683
 166    0.0049927829425265
 167     -0.17924437323027
 168     -0.25537224920337
 169      0.50706185837938
 170      0.13048492799724
 171     -0.24698317004822
 172      0.39062498761085
 173     0.098900556778327
 174     -0.20041650161151
 175    -0.0099783528174482
 176    0.0063657419001563
 177    -0.0014669740357421
 178    0.0040416616737723
 179     0.008893270766843
 180    -0.014031057299781
 181    -0.023818900150902
 182    0.0018060011910153
 183    9.4603245570113e-05
 184    -0.0010997508782612
 185    0.0030616193001941
 186    -0.0057248149908838
 187    -0.0010010646125106
 188    -2.5411311386101e-05
 189    0.00074717662768354
 190    -0.00074588004814675
 191     0.011852507744052
 192     0.030720087342505
 193     0.030331433486115
 194    -0.011235619247785
 195    -0.017457037124692
 196     0.027118750282868
 197    -0.024237834197823
 198    -0.017960448957544
 199    0.00045462337053043
 200    -0.00050557994389124
 201    0.00026912069817534
 202    4.0692333237906e-05
 203    -0.00032034124596239
 204    0.0043243517233959
 205    0.00081437127045758
 206    -0.0013703349664364
 207    0.0011762744017596
 208    -0.00087009802182778
 209    -0.0023718784879106
 210    0.0003765938706914
 211    0.00035305650968933
 212    -0.00010497689720703
 213    -0.00015470974192672
 214    -0.00030634650186218
 215     0.001076197431887
 216    2.4288943294704e-05
 217    0.00032838027515709
 218    -0.00018755453087668
 219     0.051032404243264
 220    0.0064161551741194
 221     0.016914869989658
 222    0.0087055889688746
 223    -0.015236960129365
 224    -0.010347336261999
 225    -0.055758215346974
 226    -0.0054676761979269
 227    -0.00057092333632027
 228    0.0012568231509573
