[Molden Format]
made by pyscf v[2.1.0]
[Atoms] (AU)
C   1   6     5.80518952178463     0.50358555603085    -2.01447450495210
O   2   8     7.59006230260208    -0.90749372816926    -2.10619425213399
C   3   6     4.06257668629083     0.88716594424731     0.25526042545400
O   4   8     4.92221121062936    -0.52198770903186     2.35899047472156
C   5   6     1.33654470639501     0.10405776904918    -0.51168492220073
H   6   1     0.89689425433657     0.93209418285884    -2.36575758397362
C   7   6    -0.64932879366180     1.09909683939116     1.38333243551311
O   8   8    -0.00969996419739     0.43834276158024     3.94911375031970
C   9   6    -3.35971006179398     0.18432766564233     0.79610193203064
H   10   1    -4.66165577257433     1.18213140530455     2.06285149374097
C   11   6    -4.19715353225174     0.65517938574345    -1.93554631390739
O   12   8    -6.81065988033421     0.10526341431665    -2.27483908066855
H   13   1     5.22581272007586     1.68491382773245    -3.67455355195552
H   14   1     4.03225036144381     2.94522509253638     0.63780524375420
H   15   1     3.63813663980902    -0.25163782047321     3.65830001755813
O   16   8     1.20169573987217    -2.59733407190845    -0.80186748643669
H   17   1    -0.61314809728088     3.17348700084872     1.28243995772258
H   18   1    -0.91242591335437    -1.12422074821725     4.30347519319814
O   19   8    -3.63012231131474    -2.45370354808476     1.43919651920751
H   20   1    -3.01998643747642    -0.49263081368674    -3.22017268475610
H   21   1    -3.94341055687576     2.65625195302014    -2.42398382532372
H   22   1    -7.07185971499772    -1.58002646891459    -1.60535635788826
H   23   1     2.47305434360030    -3.30624782000391     0.32275766317121
H   24   1    -2.30526934045242    -3.31584195953833     0.48480734753104
[GTO]
1 0
 s    8 1.00
                  6665  0.00069158396281299
                  1000  0.0053257961529341
                   228   0.027060721042034
                 64.71    0.10165684614077
                 21.06     0.2745748236174
                 7.495    0.44829431892377
                 2.797    0.28490261071525
                0.5215   0.015194859206082
 s    8 1.00
                  6665  -0.00029326965268655
                  1000  -0.0023180354739745
                   228  -0.011499786038565
                 64.71  -0.046826727009787
                 21.06   -0.12846616875047
                 7.495   -0.30126627246289
                 2.797   -0.25563070233011
                0.5215      1.093793361012
 s    1 1.00
                0.1596                   1
 p    3 1.00
                 9.439   0.056979251590039
                 2.002    0.31320721150073
                0.5456    0.76037674173753
 p    1 1.00
                0.1517                   1
 d    1 1.00
                  0.55                   1

2 0
 s    8 1.00
                 11720  0.00070964594651845
                  1759  0.0054672722921914
                 400.8   0.027823118610189
                 113.7    0.10474773971146
                 37.03    0.28292084635691
                 13.27    0.44849523869833
                 5.025    0.27081688521277
                 1.013    0.01545029160744
 s    8 1.00
                 11720  -0.00031444341168873
                  1759  -0.0024821376810179
                 400.8  -0.012316355381583
                 113.7  -0.050538917343672
                 37.03   -0.13938490331632
                 13.27   -0.32507749481778
                 5.025   -0.22984830758785
                 1.013     1.0953793467883
 s    1 1.00
                0.3023                   1
 p    3 1.00
                  17.7   0.062679166281506
                 3.854    0.33353656587936
                 1.046    0.74123964163973
 p    1 1.00
                0.2753                   1
 d    1 1.00
                 1.185                   1

3 0
 s    8 1.00
                  6665  0.00069158396281299
                  1000  0.0053257961529341
                   228   0.027060721042034
                 64.71    0.10165684614077
                 21.06     0.2745748236174
                 7.495    0.44829431892377
                 2.797    0.28490261071525
                0.5215   0.015194859206082
 s    8 1.00
                  6665  -0.00029326965268655
                  1000  -0.0023180354739745
                   228  -0.011499786038565
                 64.71  -0.046826727009787
                 21.06   -0.12846616875047
                 7.495   -0.30126627246289
                 2.797   -0.25563070233011
                0.5215      1.093793361012
 s    1 1.00
                0.1596                   1
 p    3 1.00
                 9.439   0.056979251590039
                 2.002    0.31320721150073
                0.5456    0.76037674173753
 p    1 1.00
                0.1517                   1
 d    1 1.00
                  0.55                   1

4 0
 s    8 1.00
                 11720  0.00070964594651845
                  1759  0.0054672722921914
                 400.8   0.027823118610189
                 113.7    0.10474773971146
                 37.03    0.28292084635691
                 13.27    0.44849523869833
                 5.025    0.27081688521277
                 1.013    0.01545029160744
 s    8 1.00
                 11720  -0.00031444341168873
                  1759  -0.0024821376810179
                 400.8  -0.012316355381583
                 113.7  -0.050538917343672
                 37.03   -0.13938490331632
                 13.27   -0.32507749481778
                 5.025   -0.22984830758785
                 1.013     1.0953793467883
 s    1 1.00
                0.3023                   1
 p    3 1.00
                  17.7   0.062679166281506
                 3.854    0.33353656587936
                 1.046    0.74123964163973
 p    1 1.00
                0.2753                   1
 d    1 1.00
                 1.185                   1

5 0
 s    8 1.00
                  6665  0.00069158396281299
                  1000  0.0053257961529341
                   228   0.027060721042034
                 64.71    0.10165684614077
                 21.06     0.2745748236174
                 7.495    0.44829431892377
                 2.797    0.28490261071525
                0.5215   0.015194859206082
 s    8 1.00
                  6665  -0.00029326965268655
                  1000  -0.0023180354739745
                   228  -0.011499786038565
                 64.71  -0.046826727009787
                 21.06   -0.12846616875047
                 7.495   -0.30126627246289
                 2.797   -0.25563070233011
                0.5215      1.093793361012
 s    1 1.00
                0.1596                   1
 p    3 1.00
                 9.439   0.056979251590039
                 2.002    0.31320721150073
                0.5456    0.76037674173753
 p    1 1.00
                0.1517                   1
 d    1 1.00
                  0.55                   1

6 0
 s    3 1.00
                 13.01   0.033498726389998
                 1.962    0.23480080117413
                0.4446     0.8136829578829
 s    1 1.00
                 0.122                   1
 p    1 1.00
                 0.727                   1

7 0
 s    8 1.00
                  6665  0.00069158396281299
                  1000  0.0053257961529341
                   228   0.027060721042034
                 64.71    0.10165684614077
                 21.06     0.2745748236174
                 7.495    0.44829431892377
                 2.797    0.28490261071525
                0.5215   0.015194859206082
 s    8 1.00
                  6665  -0.00029326965268655
                  1000  -0.0023180354739745
                   228  -0.011499786038565
                 64.71  -0.046826727009787
                 21.06   -0.12846616875047
                 7.495   -0.30126627246289
                 2.797   -0.25563070233011
                0.5215      1.093793361012
 s    1 1.00
                0.1596                   1
 p    3 1.00
                 9.439   0.056979251590039
                 2.002    0.31320721150073
                0.5456    0.76037674173753
 p    1 1.00
                0.1517                   1
 d    1 1.00
                  0.55                   1

8 0
 s    8 1.00
                 11720  0.00070964594651845
                  1759  0.0054672722921914
                 400.8   0.027823118610189
                 113.7    0.10474773971146
                 37.03    0.28292084635691
                 13.27    0.44849523869833
                 5.025    0.27081688521277
                 1.013    0.01545029160744
 s    8 1.00
                 11720  -0.00031444341168873
                  1759  -0.0024821376810179
                 400.8  -0.012316355381583
                 113.7  -0.050538917343672
                 37.03   -0.13938490331632
                 13.27   -0.32507749481778
                 5.025   -0.22984830758785
                 1.013     1.0953793467883
 s    1 1.00
                0.3023                   1
 p    3 1.00
                  17.7   0.062679166281506
                 3.854    0.33353656587936
                 1.046    0.74123964163973
 p    1 1.00
                0.2753                   1
 d    1 1.00
                 1.185                   1

9 0
 s    8 1.00
                  6665  0.00069158396281299
                  1000  0.0053257961529341
                   228   0.027060721042034
                 64.71    0.10165684614077
                 21.06     0.2745748236174
                 7.495    0.44829431892377
                 2.797    0.28490261071525
                0.5215   0.015194859206082
 s    8 1.00
                  6665  -0.00029326965268655
                  1000  -0.0023180354739745
                   228  -0.011499786038565
                 64.71  -0.046826727009787
                 21.06   -0.12846616875047
                 7.495   -0.30126627246289
                 2.797   -0.25563070233011
                0.5215      1.093793361012
 s    1 1.00
                0.1596                   1
 p    3 1.00
                 9.439   0.056979251590039
                 2.002    0.31320721150073
                0.5456    0.76037674173753
 p    1 1.00
                0.1517                   1
 d    1 1.00
                  0.55                   1

10 0
 s    3 1.00
                 13.01   0.033498726389998
                 1.962    0.23480080117413
                0.4446     0.8136829578829
 s    1 1.00
                 0.122                   1
 p    1 1.00
                 0.727                   1

11 0
 s    8 1.00
                  6665  0.00069158396281299
                  1000  0.0053257961529341
                   228   0.027060721042034
                 64.71    0.10165684614077
                 21.06     0.2745748236174
                 7.495    0.44829431892377
                 2.797    0.28490261071525
                0.5215   0.015194859206082
 s    8 1.00
                  6665  -0.00029326965268655
                  1000  -0.0023180354739745
                   228  -0.011499786038565
                 64.71  -0.046826727009787
                 21.06   -0.12846616875047
                 7.495   -0.30126627246289
                 2.797   -0.25563070233011
                0.5215      1.093793361012
 s    1 1.00
                0.1596                   1
 p    3 1.00
                 9.439   0.056979251590039
                 2.002    0.31320721150073
                0.5456    0.76037674173753
 p    1 1.00
                0.1517                   1
 d    1 1.00
                  0.55                   1

12 0
 s    8 1.00
                 11720  0.00070964594651845
                  1759  0.0054672722921914
                 400.8   0.027823118610189
                 113.7    0.10474773971146
                 37.03    0.28292084635691
                 13.27    0.44849523869833
                 5.025    0.27081688521277
                 1.013    0.01545029160744
 s    8 1.00
                 11720  -0.00031444341168873
                  1759  -0.0024821376810179
                 400.8  -0.012316355381583
                 113.7  -0.050538917343672
                 37.03   -0.13938490331632
                 13.27   -0.32507749481778
                 5.025   -0.22984830758785
                 1.013     1.0953793467883
 s    1 1.00
                0.3023                   1
 p    3 1.00
                  17.7   0.062679166281506
                 3.854    0.33353656587936
                 1.046    0.74123964163973
 p    1 1.00
                0.2753                   1
 d    1 1.00
                 1.185                   1

13 0
 s    3 1.00
                 13.01   0.033498726389998
                 1.962    0.23480080117413
                0.4446     0.8136829578829
 s    1 1.00
                 0.122                   1
 p    1 1.00
                 0.727                   1

14 0
 s    3 1.00
                 13.01   0.033498726389998
                 1.962    0.23480080117413
                0.4446     0.8136829578829
 s    1 1.00
                 0.122                   1
 p    1 1.00
                 0.727                   1

15 0
 s    3 1.00
                 13.01   0.033498726389998
                 1.962    0.23480080117413
                0.4446     0.8136829578829
 s    1 1.00
                 0.122                   1
 p    1 1.00
                 0.727                   1

16 0
 s    8 1.00
                 11720  0.00070964594651845
                  1759  0.0054672722921914
                 400.8   0.027823118610189
                 113.7    0.10474773971146
                 37.03    0.28292084635691
                 13.27    0.44849523869833
                 5.025    0.27081688521277
                 1.013    0.01545029160744
 s    8 1.00
                 11720  -0.00031444341168873
                  1759  -0.0024821376810179
                 400.8  -0.012316355381583
                 113.7  -0.050538917343672
                 37.03   -0.13938490331632
                 13.27   -0.32507749481778
                 5.025   -0.22984830758785
                 1.013     1.0953793467883
 s    1 1.00
                0.3023                   1
 p    3 1.00
                  17.7   0.062679166281506
                 3.854    0.33353656587936
                 1.046    0.74123964163973
 p    1 1.00
                0.2753                   1
 d    1 1.00
                 1.185                   1

17 0
 s    3 1.00
                 13.01   0.033498726389998
                 1.962    0.23480080117413
                0.4446     0.8136829578829
 s    1 1.00
                 0.122                   1
 p    1 1.00
                 0.727                   1

18 0
 s    3 1.00
                 13.01   0.033498726389998
                 1.962    0.23480080117413
                0.4446     0.8136829578829
 s    1 1.00
                 0.122                   1
 p    1 1.00
                 0.727                   1

19 0
 s    8 1.00
                 11720  0.00070964594651845
                  1759  0.0054672722921914
                 400.8   0.027823118610189
                 113.7    0.10474773971146
                 37.03    0.28292084635691
                 13.27    0.44849523869833
                 5.025    0.27081688521277
                 1.013    0.01545029160744
 s    8 1.00
                 11720  -0.00031444341168873
                  1759  -0.0024821376810179
                 400.8  -0.012316355381583
                 113.7  -0.050538917343672
                 37.03   -0.13938490331632
                 13.27   -0.32507749481778
                 5.025   -0.22984830758785
                 1.013     1.0953793467883
 s    1 1.00
                0.3023                   1
 p    3 1.00
                  17.7   0.062679166281506
                 3.854    0.33353656587936
                 1.046    0.74123964163973
 p    1 1.00
                0.2753                   1
 d    1 1.00
                 1.185                   1

20 0
 s    3 1.00
                 13.01   0.033498726389998
                 1.962    0.23480080117413
                0.4446     0.8136829578829
 s    1 1.00
                 0.122                   1
 p    1 1.00
                 0.727                   1

21 0
 s    3 1.00
                 13.01   0.033498726389998
                 1.962    0.23480080117413
                0.4446     0.8136829578829
 s    1 1.00
                 0.122                   1
 p    1 1.00
                 0.727                   1

22 0
 s    3 1.00
                 13.01   0.033498726389998
                 1.962    0.23480080117413
                0.4446     0.8136829578829
 s    1 1.00
                 0.122                   1
 p    1 1.00
                 0.727                   1

23 0
 s    3 1.00
                 13.01   0.033498726389998
                 1.962    0.23480080117413
                0.4446     0.8136829578829
 s    1 1.00
                 0.122                   1
 p    1 1.00
                 0.727                   1

24 0
 s    3 1.00
                 13.01   0.033498726389998
                 1.962    0.23480080117413
                0.4446     0.8136829578829
 s    1 1.00
                 0.122                   1
 p    1 1.00
                 0.727                   1

[5d]
[7f]
[9g]

[MO]
 Sym= A
 Ene=     -20.5989454
 Spin= Alpha
 Occup=    2.00000
   1    0.0013250206260831
   2     0.015644454487251
   3      0.03760344183747
   4     -0.01346215582725
   5     0.001017269602113
   6     0.021006124581877
   7    -0.015518192206364
   8    0.0044258545704004
   9      0.01446426594422
  10    -0.00012289486407033
  11    0.0013867461431733
  12    -0.00069807779814307
  13    -0.00086051347041501
  14    0.0019784805937518
  15    1.1951729961927e-05
  16    0.0017574637012108
  17    0.0066686995477634
  18    -0.0019329200977587
  19     0.001683133577923
  20    0.0011838835231107
  21    -0.0012141419345925
  22    0.0029770137402468
  23    -0.0032200061519736
  24    -0.00091378382282559
  25    3.7287357707178e-05
  26    0.00037531823556328
  27    0.00019181132446974
  28    -0.00058092097785393
  29    -0.000682994702722
  30    -0.028557924477034
  31     -0.05561019582169
  32     -0.02043573142083
  33      0.02537069709345
  34    -0.028873861702141
  35    -0.016689847220152
  36     0.035278833336082
  37    -0.013959969983055
  38     0.019434719594134
  39    -0.013423903543345
  40    -0.00069147660959117
  41    -0.0007602215338558
  42     0.010160468681512
  43    -0.0061426021195883
  44       0.2286696290418
  45      0.15993677538756
  46     -0.27910540960115
  47     0.050436148615348
  48      0.31899513823849
  49     -0.13728471204892
  50     0.028760018154176
  51      0.14701818949997
  52    -0.0040985279524981
  53     -0.01338862818724
  54    0.0068855538801334
  55    0.0089613570734869
  56    -0.0058046926293478
  57    -0.0029104977029995
  58    -0.010098632838113
  59     0.017077576872419
  60    -0.010674780043344
  61    -0.00086902500951982
  62    -0.0091490683114324
  63    0.0014815772455768
  64    -0.020632698695001
  65    0.0071806761997969
  66    0.00012911905791353
  67    -0.00096918450225641
  68    -0.00029456201772229
  69    -0.00063840228155091
  70    0.0013146730436572
  71    0.0054016039205209
  72     0.004627927570176
  73    -0.0008451896634832
  74    0.00046079299902613
  75    0.00042148479540238
  76    -2.335145852004e-05
  77    -0.00060007366626472
  78    -0.0027577006056704
  79    -0.0029672349181904
  80    0.00099952857201228
  81    0.00062565527864397
  82    -0.0095090013642114
  83    0.0095950611853664
  84    -0.0049905634169575
  85    0.00061766343143981
  86    -0.00029868477246614
  87    -7.708188159546e-06
  88    0.00052157738741011
  89    0.0004823962324625
  90    -0.0011915715439048
  91    -0.0060555878770585
  92    -0.0055889343647188
  93    -0.014888617747055
  94    0.0045453931604024
  95    0.0025476212233508
  96    -0.014696942503419
  97    0.0052334125239902
  98    -0.0017917882472977
  99    -0.0010935504527545
 100    -0.00018296298670841
 101    9.8758303114214e-06
 102    0.0017551056035607
 103    -0.00043631230764599
 104    0.00037165931285965
 105    -0.00020900324222313
 106    -0.010110241962157
 107    -0.00095963905195749
 108    -0.00081394758470001
 109    -0.0010131117112968
 110    -0.0018922333365715
 111    -0.005364737781112
 112    0.0043275665269253
 113    0.00027464052717995
 114    0.00022340594856045
 115    -6.4157536699703e-05
 116    0.00017562916749943
 117    -0.00039421985548932
 118    -0.00075814481531717
 119    0.00063260441683583
 120    -2.3311596537945e-05
 121    0.00021689053635725
 122    -0.00010769925820993
 123    -0.00044161474670526
 124    -0.00046804556482229
 125    0.0075208957780258
 126    -5.6872213395021e-05
 127    2.2866740907654e-06
 128    0.0011371503438055
 129    0.0016570964357563
 130    -0.0004534387823338
 131    0.0031245795241222
 132    7.9741586997268e-05
 133    -2.1544210802722e-05
 134    2.4017867294305e-05
 135    5.1743633486524e-05
 136    -8.8809934795951e-05
 137    1.1361110050137e-05
 138    -3.3520058949103e-05
 139    -0.00035038072571917
 140    -0.00012507522686187
 141    -4.4663601834062e-05
 142    -0.00027942074943773
 143    -0.0003574091155902
 144    9.1553316279399e-05
 145    -0.00068183407411829
 146    1.834770265664e-05
 147    1.2520433235958e-05
 148    1.2984267142274e-05
 149    1.4495896860742e-07
 150    -9.0695059339534e-06
 151    -0.013730227331027
 152    -0.019553889593651
 153     -0.00127620427083
 154    0.0010744486793183
 155    -0.00013419950511071
 156    -0.011582488475698
 157    -0.014147325057175
 158    -0.00039727109797595
 159    -0.00048286461888411
 160    -0.0013179225713405
 161      0.40535007435335
 162     0.052085681679945
 163     0.042445819109587
 164    -0.0075779829241099
 165    -0.046515302598962
 166    0.0013353534370544
 167    0.0016699355997308
 168    -0.014078242596951
 169    0.00022229310672134
 170    0.00083280419663931
 171    -0.0015326369647176
 172    0.00091497950401134
 173    -0.0046334510448123
 174    -0.0013015745721986
 175    0.00011342681460037
 176    -0.00013041980511122
 177    -0.000224978838976
 178    0.00013610879304814
 179    -0.00026224721562967
 180    0.00032532606661095
 181    -0.003901406626413
 182    0.00018384527900688
 183    -0.00029165205955821
 184    0.00023396840397912
 185    0.0011141372907947
 186    0.0054613956438752
 187    -0.00091806281033928
 188    0.00073657444444268
 189    3.8015826900565e-05
 190    -7.0438575020537e-06
 191    -0.00015320460022079
 192    -0.00043574062096965
 193    -0.00018630572561571
 194    -0.00015326566562511
 195    -0.00050720163061269
 196    0.00054340219329878
 197    -0.0010382027287814
 198    -0.0012711783464247
 199    3.1882044187767e-05
 200    -8.1963286808869e-06
 201    -1.8526036992105e-05
 202    3.6403989115506e-05
 203    -4.4100860434366e-05
 204    -0.00080429162532633
 205    -0.0014404154594709
 206    0.00010346382440667
 207    -9.0554629132974e-05
 208    -8.4793508939319e-05
 209    -0.00024521780901975
 210    0.00011912889975033
 211    -0.00012468584099385
 212    1.3195002419177e-05
 213    -1.0564473491094e-06
 214    -9.3349995084684e-06
 215    1.4394505944567e-06
 216    -2.6136369422473e-05
 217    1.9587864562685e-05
 218    -4.1312935958361e-05
 219    -0.00028129175121494
 220    -0.0016997034682986
 221    -0.0006377473239392
 222    0.00026362024056989
 223    0.00069085574541122
 224    -0.00020963501302335
 225    -0.0030862255451053
 226    2.2700951862633e-06
 227    -0.00019205608543634
 228    -9.7630035864025e-05
