[Molden Format]
made by pyscf v[2.1.0]
[Atoms] (AU)
C   1   6     5.80518952178463     0.50358555603085    -2.01447450495210
O   2   8     7.59006230260208    -0.90749372816926    -2.10619425213399
C   3   6     4.06257668629083     0.88716594424731     0.25526042545400
O   4   8     4.92221121062936    -0.52198770903186     2.35899047472156
C   5   6     1.33654470639501     0.10405776904918    -0.51168492220073
H   6   1     0.89689425433657     0.93209418285884    -2.36575758397362
C   7   6    -0.64932879366180     1.09909683939116     1.38333243551311
O   8   8    -0.00969996419739     0.43834276158024     3.94911375031970
C   9   6    -3.35971006179398     0.18432766564233     0.79610193203064
H   10   1    -4.66165577257433     1.18213140530455     2.06285149374097
C   11   6    -4.19715353225174     0.65517938574345    -1.93554631390739
O   12   8    -6.81065988033421     0.10526341431665    -2.27483908066855
H   13   1     5.22581272007586     1.68491382773245    -3.67455355195552
H   14   1     4.03225036144381     2.94522509253638     0.63780524375420
H   15   1     3.63813663980902    -0.25163782047321     3.65830001755813
O   16   8     1.20169573987217    -2.59733407190845    -0.80186748643669
H   17   1    -0.61314809728088     3.17348700084872     1.28243995772258
H   18   1    -0.91242591335437    -1.12422074821725     4.30347519319814
O   19   8    -3.63012231131474    -2.45370354808476     1.43919651920751
H   20   1    -3.01998643747642    -0.49263081368674    -3.22017268475610
H   21   1    -3.94341055687576     2.65625195302014    -2.42398382532372
H   22   1    -7.07185971499772    -1.58002646891459    -1.60535635788826
H   23   1     2.47305434360030    -3.30624782000391     0.32275766317121
H   24   1    -2.30526934045242    -3.31584195953833     0.48480734753104
[GTO]
1 0
 s    8 1.00
                  6665  0.00069158396281299
                  1000  0.0053257961529341
                   228   0.027060721042034
                 64.71    0.10165684614077
                 21.06     0.2745748236174
                 7.495    0.44829431892377
                 2.797    0.28490261071525
                0.5215   0.015194859206082
 s    8 1.00
                  6665  -0.00029326965268655
                  1000  -0.0023180354739745
                   228  -0.011499786038565
                 64.71  -0.046826727009787
                 21.06   -0.12846616875047
                 7.495   -0.30126627246289
                 2.797   -0.25563070233011
                0.5215      1.093793361012
 s    1 1.00
                0.1596                   1
 p    3 1.00
                 9.439   0.056979251590039
                 2.002    0.31320721150073
                0.5456    0.76037674173753
 p    1 1.00
                0.1517                   1
 d    1 1.00
                  0.55                   1

2 0
 s    8 1.00
                 11720  0.00070964594651845
                  1759  0.0054672722921914
                 400.8   0.027823118610189
                 113.7    0.10474773971146
                 37.03    0.28292084635691
                 13.27    0.44849523869833
                 5.025    0.27081688521277
                 1.013    0.01545029160744
 s    8 1.00
                 11720  -0.00031444341168873
                  1759  -0.0024821376810179
                 400.8  -0.012316355381583
                 113.7  -0.050538917343672
                 37.03   -0.13938490331632
                 13.27   -0.32507749481778
                 5.025   -0.22984830758785
                 1.013     1.0953793467883
 s    1 1.00
                0.3023                   1
 p    3 1.00
                  17.7   0.062679166281506
                 3.854    0.33353656587936
                 1.046    0.74123964163973
 p    1 1.00
                0.2753                   1
 d    1 1.00
                 1.185                   1

3 0
 s    8 1.00
                  6665  0.00069158396281299
                  1000  0.0053257961529341
                   228   0.027060721042034
                 64.71    0.10165684614077
                 21.06     0.2745748236174
                 7.495    0.44829431892377
                 2.797    0.28490261071525
                0.5215   0.015194859206082
 s    8 1.00
                  6665  -0.00029326965268655
                  1000  -0.0023180354739745
                   228  -0.011499786038565
                 64.71  -0.046826727009787
                 21.06   -0.12846616875047
                 7.495   -0.30126627246289
                 2.797   -0.25563070233011
                0.5215      1.093793361012
 s    1 1.00
                0.1596                   1
 p    3 1.00
                 9.439   0.056979251590039
                 2.002    0.31320721150073
                0.5456    0.76037674173753
 p    1 1.00
                0.1517                   1
 d    1 1.00
                  0.55                   1

4 0
 s    8 1.00
                 11720  0.00070964594651845
                  1759  0.0054672722921914
                 400.8   0.027823118610189
                 113.7    0.10474773971146
                 37.03    0.28292084635691
                 13.27    0.44849523869833
                 5.025    0.27081688521277
                 1.013    0.01545029160744
 s    8 1.00
                 11720  -0.00031444341168873
                  1759  -0.0024821376810179
                 400.8  -0.012316355381583
                 113.7  -0.050538917343672
                 37.03   -0.13938490331632
                 13.27   -0.32507749481778
                 5.025   -0.22984830758785
                 1.013     1.0953793467883
 s    1 1.00
                0.3023                   1
 p    3 1.00
                  17.7   0.062679166281506
                 3.854    0.33353656587936
                 1.046    0.74123964163973
 p    1 1.00
                0.2753                   1
 d    1 1.00
                 1.185                   1

5 0
 s    8 1.00
                  6665  0.00069158396281299
                  1000  0.0053257961529341
                   228   0.027060721042034
                 64.71    0.10165684614077
                 21.06     0.2745748236174
                 7.495    0.44829431892377
                 2.797    0.28490261071525
                0.5215   0.015194859206082
 s    8 1.00
                  6665  -0.00029326965268655
                  1000  -0.0023180354739745
                   228  -0.011499786038565
                 64.71  -0.046826727009787
                 21.06   -0.12846616875047
                 7.495   -0.30126627246289
                 2.797   -0.25563070233011
                0.5215      1.093793361012
 s    1 1.00
                0.1596                   1
 p    3 1.00
                 9.439   0.056979251590039
                 2.002    0.31320721150073
                0.5456    0.76037674173753
 p    1 1.00
                0.1517                   1
 d    1 1.00
                  0.55                   1

6 0
 s    3 1.00
                 13.01   0.033498726389998
                 1.962    0.23480080117413
                0.4446     0.8136829578829
 s    1 1.00
                 0.122                   1
 p    1 1.00
                 0.727                   1

7 0
 s    8 1.00
                  6665  0.00069158396281299
                  1000  0.0053257961529341
                   228   0.027060721042034
                 64.71    0.10165684614077
                 21.06     0.2745748236174
                 7.495    0.44829431892377
                 2.797    0.28490261071525
                0.5215   0.015194859206082
 s    8 1.00
                  6665  -0.00029326965268655
                  1000  -0.0023180354739745
                   228  -0.011499786038565
                 64.71  -0.046826727009787
                 21.06   -0.12846616875047
                 7.495   -0.30126627246289
                 2.797   -0.25563070233011
                0.5215      1.093793361012
 s    1 1.00
                0.1596                   1
 p    3 1.00
                 9.439   0.056979251590039
                 2.002    0.31320721150073
                0.5456    0.76037674173753
 p    1 1.00
                0.1517                   1
 d    1 1.00
                  0.55                   1

8 0
 s    8 1.00
                 11720  0.00070964594651845
                  1759  0.0054672722921914
                 400.8   0.027823118610189
                 113.7    0.10474773971146
                 37.03    0.28292084635691
                 13.27    0.44849523869833
                 5.025    0.27081688521277
                 1.013    0.01545029160744
 s    8 1.00
                 11720  -0.00031444341168873
                  1759  -0.0024821376810179
                 400.8  -0.012316355381583
                 113.7  -0.050538917343672
                 37.03   -0.13938490331632
                 13.27   -0.32507749481778
                 5.025   -0.22984830758785
                 1.013     1.0953793467883
 s    1 1.00
                0.3023                   1
 p    3 1.00
                  17.7   0.062679166281506
                 3.854    0.33353656587936
                 1.046    0.74123964163973
 p    1 1.00
                0.2753                   1
 d    1 1.00
                 1.185                   1

9 0
 s    8 1.00
                  6665  0.00069158396281299
                  1000  0.0053257961529341
                   228   0.027060721042034
                 64.71    0.10165684614077
                 21.06     0.2745748236174
                 7.495    0.44829431892377
                 2.797    0.28490261071525
                0.5215   0.015194859206082
 s    8 1.00
                  6665  -0.00029326965268655
                  1000  -0.0023180354739745
                   228  -0.011499786038565
                 64.71  -0.046826727009787
                 21.06   -0.12846616875047
                 7.495   -0.30126627246289
                 2.797   -0.25563070233011
                0.5215      1.093793361012
 s    1 1.00
                0.1596                   1
 p    3 1.00
                 9.439   0.056979251590039
                 2.002    0.31320721150073
                0.5456    0.76037674173753
 p    1 1.00
                0.1517                   1
 d    1 1.00
                  0.55                   1

10 0
 s    3 1.00
                 13.01   0.033498726389998
                 1.962    0.23480080117413
                0.4446     0.8136829578829
 s    1 1.00
                 0.122                   1
 p    1 1.00
                 0.727                   1

11 0
 s    8 1.00
                  6665  0.00069158396281299
                  1000  0.0053257961529341
                   228   0.027060721042034
                 64.71    0.10165684614077
                 21.06     0.2745748236174
                 7.495    0.44829431892377
                 2.797    0.28490261071525
                0.5215   0.015194859206082
 s    8 1.00
                  6665  -0.00029326965268655
                  1000  -0.0023180354739745
                   228  -0.011499786038565
                 64.71  -0.046826727009787
                 21.06   -0.12846616875047
                 7.495   -0.30126627246289
                 2.797   -0.25563070233011
                0.5215      1.093793361012
 s    1 1.00
                0.1596                   1
 p    3 1.00
                 9.439   0.056979251590039
                 2.002    0.31320721150073
                0.5456    0.76037674173753
 p    1 1.00
                0.1517                   1
 d    1 1.00
                  0.55                   1

12 0
 s    8 1.00
                 11720  0.00070964594651845
                  1759  0.0054672722921914
                 400.8   0.027823118610189
                 113.7    0.10474773971146
                 37.03    0.28292084635691
                 13.27    0.44849523869833
                 5.025    0.27081688521277
                 1.013    0.01545029160744
 s    8 1.00
                 11720  -0.00031444341168873
                  1759  -0.0024821376810179
                 400.8  -0.012316355381583
                 113.7  -0.050538917343672
                 37.03   -0.13938490331632
                 13.27   -0.32507749481778
                 5.025   -0.22984830758785
                 1.013     1.0953793467883
 s    1 1.00
                0.3023                   1
 p    3 1.00
                  17.7   0.062679166281506
                 3.854    0.33353656587936
                 1.046    0.74123964163973
 p    1 1.00
                0.2753                   1
 d    1 1.00
                 1.185                   1

13 0
 s    3 1.00
                 13.01   0.033498726389998
                 1.962    0.23480080117413
                0.4446     0.8136829578829
 s    1 1.00
                 0.122                   1
 p    1 1.00
                 0.727                   1

14 0
 s    3 1.00
                 13.01   0.033498726389998
                 1.962    0.23480080117413
                0.4446     0.8136829578829
 s    1 1.00
                 0.122                   1
 p    1 1.00
                 0.727                   1

15 0
 s    3 1.00
                 13.01   0.033498726389998
                 1.962    0.23480080117413
                0.4446     0.8136829578829
 s    1 1.00
                 0.122                   1
 p    1 1.00
                 0.727                   1

16 0
 s    8 1.00
                 11720  0.00070964594651845
                  1759  0.0054672722921914
                 400.8   0.027823118610189
                 113.7    0.10474773971146
                 37.03    0.28292084635691
                 13.27    0.44849523869833
                 5.025    0.27081688521277
                 1.013    0.01545029160744
 s    8 1.00
                 11720  -0.00031444341168873
                  1759  -0.0024821376810179
                 400.8  -0.012316355381583
                 113.7  -0.050538917343672
                 37.03   -0.13938490331632
                 13.27   -0.32507749481778
                 5.025   -0.22984830758785
                 1.013     1.0953793467883
 s    1 1.00
                0.3023                   1
 p    3 1.00
                  17.7   0.062679166281506
                 3.854    0.33353656587936
                 1.046    0.74123964163973
 p    1 1.00
                0.2753                   1
 d    1 1.00
                 1.185                   1

17 0
 s    3 1.00
                 13.01   0.033498726389998
                 1.962    0.23480080117413
                0.4446     0.8136829578829
 s    1 1.00
                 0.122                   1
 p    1 1.00
                 0.727                   1

18 0
 s    3 1.00
                 13.01   0.033498726389998
                 1.962    0.23480080117413
                0.4446     0.8136829578829
 s    1 1.00
                 0.122                   1
 p    1 1.00
                 0.727                   1

19 0
 s    8 1.00
                 11720  0.00070964594651845
                  1759  0.0054672722921914
                 400.8   0.027823118610189
                 113.7    0.10474773971146
                 37.03    0.28292084635691
                 13.27    0.44849523869833
                 5.025    0.27081688521277
                 1.013    0.01545029160744
 s    8 1.00
                 11720  -0.00031444341168873
                  1759  -0.0024821376810179
                 400.8  -0.012316355381583
                 113.7  -0.050538917343672
                 37.03   -0.13938490331632
                 13.27   -0.32507749481778
                 5.025   -0.22984830758785
                 1.013     1.0953793467883
 s    1 1.00
                0.3023                   1
 p    3 1.00
                  17.7   0.062679166281506
                 3.854    0.33353656587936
                 1.046    0.74123964163973
 p    1 1.00
                0.2753                   1
 d    1 1.00
                 1.185                   1

20 0
 s    3 1.00
                 13.01   0.033498726389998
                 1.962    0.23480080117413
                0.4446     0.8136829578829
 s    1 1.00
                 0.122                   1
 p    1 1.00
                 0.727                   1

21 0
 s    3 1.00
                 13.01   0.033498726389998
                 1.962    0.23480080117413
                0.4446     0.8136829578829
 s    1 1.00
                 0.122                   1
 p    1 1.00
                 0.727                   1

22 0
 s    3 1.00
                 13.01   0.033498726389998
                 1.962    0.23480080117413
                0.4446     0.8136829578829
 s    1 1.00
                 0.122                   1
 p    1 1.00
                 0.727                   1

23 0
 s    3 1.00
                 13.01   0.033498726389998
                 1.962    0.23480080117413
                0.4446     0.8136829578829
 s    1 1.00
                 0.122                   1
 p    1 1.00
                 0.727                   1

24 0
 s    3 1.00
                 13.01   0.033498726389998
                 1.962    0.23480080117413
                0.4446     0.8136829578829
 s    1 1.00
                 0.122                   1
 p    1 1.00
                 0.727                   1

[5d]
[7f]
[9g]

[MO]
 Sym= A
 Ene=     -20.5989454
 Spin= Alpha
 Occup=    2.00000
   1    0.00061279553634959
   2    -0.014754417056156
   3    -0.060454302499504
   4    0.0093558298696686
   5    0.0013908851202014
   6    -0.028971484407184
   7     0.021653617680699
   8    -0.010220720319865
   9     -0.02908229334776
  10    -0.0040809182408918
  11    -0.00018313063440693
  12    0.0018668145872339
  13    0.0015087751206382
  14    -0.0029076076823028
  15    -0.00096026340106664
  16    -0.0035423534891465
  17    -0.0024800879219549
  18    0.00028690456845716
  19    0.0012367205989192
  20    -0.0063078403401746
  21    -0.0018728017930835
  22    -7.460847633491e-05
  23    0.0065025011423648
  24    0.0012438825721503
  25    -7.4791609383085e-05
  26    -0.00047911798089968
  27    -0.00011240803091681
  28    0.00057220476477301
  29    -0.0031171471045319
  30     -0.04712935590758
  31    -0.037463111530511
  32    -0.018626238229922
  33     0.036690834273903
  34    -0.058329303801352
  35     0.041657958701302
  36     0.012026238441626
  37    -0.042535841979782
  38    -0.015023191957815
  39     0.016264631999389
  40    0.0036629407821978
  41    0.0030344391628339
  42    -0.0098293123796959
  43    -0.003225209591038
  44      0.34981084288986
  45       0.4613670781882
  46      0.41147756305603
  47     -0.16450184028684
  48     0.032539122706656
  49      0.29769767073623
  50     -0.11958706568987
  51     0.031192816908684
  52    0.0060505660276064
  53    -0.0017940190720321
  54    0.0022772301710379
  55    -0.0082967824251114
  56     0.011882194909244
  57    0.00053982032029079
  58     0.013774038383938
  59     0.041603088771427
  60     0.024127680028361
  61    0.0096492880379636
  62     0.011010483816792
  63     0.047919346998053
  64      0.03104648892262
  65    0.0058540741662926
  66    -0.0016032396607436
  67    -0.0012268274089857
  68     0.001117977553238
  69    -0.00011268751174256
  70    0.0017935044080251
  71     -0.01366707702336
  72    -0.020552956341441
  73    0.00087702671280241
  74    -0.00021075090246058
  75    -0.0003289153201337
  76    0.00019398535595968
  77    0.0030705032605345
  78    0.0052645971806947
  79    0.0054177145350103
  80    -0.002971896628265
  81    0.0013258694077185
  82    0.0066327028970723
  83    -0.0063777344815984
  84    -0.0042044548530271
  85    -0.001555773809956
  86    -1.3224665584235e-05
  87    0.00038181681399292
  88    -4.997956176401e-06
  89    -0.00040042430539479
  90    0.0013104127831071
  91    0.0068062992982154
  92     0.005472521162448
  93     0.010292185376927
  94    -0.0026736163915922
  95    -0.0016594786456725
  96    0.00075865421829635
  97    -0.001971706030245
  98    0.0010242521107055
  99    0.0011003883080173
 100    0.00054949767331791
 101    -0.00014681719729157
 102    -0.0014449277970929
 103    0.00049748133305996
 104    -0.0011197962173521
 105    -0.00059445956862099
 106     0.013123897696752
 107    0.0012514452552833
 108     0.001052338365974
 109    0.00071206306346537
 110    0.0074725365948971
 111    -0.0041278066817929
 112    -0.0042078098114241
 113    -0.0002555697246544
 114    0.00015218913858107
 115    -2.9085195122985e-05
 116    -0.00018277159445136
 117    0.00015932754159845
 118    0.00068567312820409
 119     0.003028012525412
 120    0.0002904076798002
 121    0.0001164933251331
 122    -0.00013037359882078
 123    0.00029960430925336
 124    0.0015645367541597
 125    -0.0053837221027955
 126     0.000833864225791
 127    -0.00035828605449223
 128    -0.0012261213103005
 129    -0.0010657019570029
 130    0.0031183809216505
 131    -0.00074368991223895
 132    0.00030740950334585
 133    -7.4547353606426e-05
 134    0.00028320150430729
 135    -0.00024855612105212
 136    2.4022133935216e-05
 137    -7.5528356382845e-05
 138    -0.00033924030828078
 139    0.00042382183982806
 140    -0.00086420512176838
 141    4.5005876349564e-05
 142    0.00028911379744917
 143    -0.00017270011046131
 144    -7.4494036632628e-05
 145    0.00049001077524378
 146    -2.9580713042375e-05
 147    -3.2398285901971e-05
 148    -1.8860530651405e-05
 149    2.9793566633416e-05
 150    1.2870337773981e-05
 151     0.011542110682757
 152    0.0080062036223817
 153    0.00065370385859608
 154    -0.0010295020405176
 155    0.0011179050376319
 156    0.0074253410808817
 157     0.022190252884014
 158    -0.0025407524707764
 159    0.0012100932621264
 160    -0.00066558707720504
 161    -0.094907244853478
 162      0.00524699243648
 163    0.0096390106868861
 164    -0.0056048738035688
 165     0.011433263624665
 166    -0.00017862286343615
 167    0.00044958214131396
 168    0.0071321478737658
 169    -0.0031490013121339
 170    0.0027275226320596
 171    -0.00063067507799271
 172    -0.0099021068561338
 173       0.0102230868908
 174    -0.0020285808364358
 175    -0.00027507832253068
 176    -0.00062739148502271
 177    0.00036756871691994
 178    -0.00060948271465284
 179    0.00043819525205931
 180    -0.0020155588998523
 181    0.00051199699901351
 182    7.0953930690689e-05
 183    0.00040292617094177
 184    0.00033507089064781
 185    -0.00035566658505394
 186    -0.010637901366337
 187    0.0012935226002498
 188    -0.0013861432177396
 189    0.00013805955175009
 190    0.00019155609327348
 191    0.00026687616523455
 192    -0.0029880536564057
 193    -0.00035109655224616
 194    -0.00022991755195859
 195    0.00041489497177316
 196    -0.00018909929607057
 197    -0.0019431571669778
 198    0.0020125758805765
 199    -3.4757755449413e-05
 200    1.922390471633e-05
 201    0.00010136182963389
 202    5.0453758258743e-05
 203    -2.191526402516e-05
 204    0.0013455617701654
 205    0.0066713538338521
 206    -3.7714157355701e-05
 207    0.00012617695015598
 208    0.00035306601009601
 209    0.00061133095669824
 210    -0.0018004485299507
 211    -2.9076872139424e-05
 212    -0.00012145189161036
 213    -6.4074569909535e-05
 214    6.2132197318273e-05
 215    0.00023235840424009
 216    -4.2854666946531e-05
 217    -2.1798803800551e-05
 218    2.2736477054043e-05
 219    -0.0044827564521438
 220     0.018182319310886
 221     0.001141694873562
 222    0.0012886412081268
 223    -0.00049471159933144
 224    9.5252057481793e-05
 225    -0.00033001773694406
 226    0.00014783085986108
 227    3.5686144811785e-05
 228    -9.1617311432862e-05
