[Molden Format]
made by pyscf v[2.1.0]
[Atoms] (AU)
C   1   6     5.80518952178463     0.50358555603085    -2.01447450495210
O   2   8     7.59006230260208    -0.90749372816926    -2.10619425213399
C   3   6     4.06257668629083     0.88716594424731     0.25526042545400
O   4   8     4.92221121062936    -0.52198770903186     2.35899047472156
C   5   6     1.33654470639501     0.10405776904918    -0.51168492220073
H   6   1     0.89689425433657     0.93209418285884    -2.36575758397362
C   7   6    -0.64932879366180     1.09909683939116     1.38333243551311
O   8   8    -0.00969996419739     0.43834276158024     3.94911375031970
C   9   6    -3.35971006179398     0.18432766564233     0.79610193203064
H   10   1    -4.66165577257433     1.18213140530455     2.06285149374097
C   11   6    -4.19715353225174     0.65517938574345    -1.93554631390739
O   12   8    -6.81065988033421     0.10526341431665    -2.27483908066855
H   13   1     5.22581272007586     1.68491382773245    -3.67455355195552
H   14   1     4.03225036144381     2.94522509253638     0.63780524375420
H   15   1     3.63813663980902    -0.25163782047321     3.65830001755813
O   16   8     1.20169573987217    -2.59733407190845    -0.80186748643669
H   17   1    -0.61314809728088     3.17348700084872     1.28243995772258
H   18   1    -0.91242591335437    -1.12422074821725     4.30347519319814
O   19   8    -3.63012231131474    -2.45370354808476     1.43919651920751
H   20   1    -3.01998643747642    -0.49263081368674    -3.22017268475610
H   21   1    -3.94341055687576     2.65625195302014    -2.42398382532372
H   22   1    -7.07185971499772    -1.58002646891459    -1.60535635788826
H   23   1     2.47305434360030    -3.30624782000391     0.32275766317121
H   24   1    -2.30526934045242    -3.31584195953833     0.48480734753104
[GTO]
1 0
 s    8 1.00
                  6665  0.00069158396281299
                  1000  0.0053257961529341
                   228   0.027060721042034
                 64.71    0.10165684614077
                 21.06     0.2745748236174
                 7.495    0.44829431892377
                 2.797    0.28490261071525
                0.5215   0.015194859206082
 s    8 1.00
                  6665  -0.00029326965268655
                  1000  -0.0023180354739745
                   228  -0.011499786038565
                 64.71  -0.046826727009787
                 21.06   -0.12846616875047
                 7.495   -0.30126627246289
                 2.797   -0.25563070233011
                0.5215      1.093793361012
 s    1 1.00
                0.1596                   1
 p    3 1.00
                 9.439   0.056979251590039
                 2.002    0.31320721150073
                0.5456    0.76037674173753
 p    1 1.00
                0.1517                   1
 d    1 1.00
                  0.55                   1

2 0
 s    8 1.00
                 11720  0.00070964594651845
                  1759  0.0054672722921914
                 400.8   0.027823118610189
                 113.7    0.10474773971146
                 37.03    0.28292084635691
                 13.27    0.44849523869833
                 5.025    0.27081688521277
                 1.013    0.01545029160744
 s    8 1.00
                 11720  -0.00031444341168873
                  1759  -0.0024821376810179
                 400.8  -0.012316355381583
                 113.7  -0.050538917343672
                 37.03   -0.13938490331632
                 13.27   -0.32507749481778
                 5.025   -0.22984830758785
                 1.013     1.0953793467883
 s    1 1.00
                0.3023                   1
 p    3 1.00
                  17.7   0.062679166281506
                 3.854    0.33353656587936
                 1.046    0.74123964163973
 p    1 1.00
                0.2753                   1
 d    1 1.00
                 1.185                   1

3 0
 s    8 1.00
                  6665  0.00069158396281299
                  1000  0.0053257961529341
                   228   0.027060721042034
                 64.71    0.10165684614077
                 21.06     0.2745748236174
                 7.495    0.44829431892377
                 2.797    0.28490261071525
                0.5215   0.015194859206082
 s    8 1.00
                  6665  -0.00029326965268655
                  1000  -0.0023180354739745
                   228  -0.011499786038565
                 64.71  -0.046826727009787
                 21.06   -0.12846616875047
                 7.495   -0.30126627246289
                 2.797   -0.25563070233011
                0.5215      1.093793361012
 s    1 1.00
                0.1596                   1
 p    3 1.00
                 9.439   0.056979251590039
                 2.002    0.31320721150073
                0.5456    0.76037674173753
 p    1 1.00
                0.1517                   1
 d    1 1.00
                  0.55                   1

4 0
 s    8 1.00
                 11720  0.00070964594651845
                  1759  0.0054672722921914
                 400.8   0.027823118610189
                 113.7    0.10474773971146
                 37.03    0.28292084635691
                 13.27    0.44849523869833
                 5.025    0.27081688521277
                 1.013    0.01545029160744
 s    8 1.00
                 11720  -0.00031444341168873
                  1759  -0.0024821376810179
                 400.8  -0.012316355381583
                 113.7  -0.050538917343672
                 37.03   -0.13938490331632
                 13.27   -0.32507749481778
                 5.025   -0.22984830758785
                 1.013     1.0953793467883
 s    1 1.00
                0.3023                   1
 p    3 1.00
                  17.7   0.062679166281506
                 3.854    0.33353656587936
                 1.046    0.74123964163973
 p    1 1.00
                0.2753                   1
 d    1 1.00
                 1.185                   1

5 0
 s    8 1.00
                  6665  0.00069158396281299
                  1000  0.0053257961529341
                   228   0.027060721042034
                 64.71    0.10165684614077
                 21.06     0.2745748236174
                 7.495    0.44829431892377
                 2.797    0.28490261071525
                0.5215   0.015194859206082
 s    8 1.00
                  6665  -0.00029326965268655
                  1000  -0.0023180354739745
                   228  -0.011499786038565
                 64.71  -0.046826727009787
                 21.06   -0.12846616875047
                 7.495   -0.30126627246289
                 2.797   -0.25563070233011
                0.5215      1.093793361012
 s    1 1.00
                0.1596                   1
 p    3 1.00
                 9.439   0.056979251590039
                 2.002    0.31320721150073
                0.5456    0.76037674173753
 p    1 1.00
                0.1517                   1
 d    1 1.00
                  0.55                   1

6 0
 s    3 1.00
                 13.01   0.033498726389998
                 1.962    0.23480080117413
                0.4446     0.8136829578829
 s    1 1.00
                 0.122                   1
 p    1 1.00
                 0.727                   1

7 0
 s    8 1.00
                  6665  0.00069158396281299
                  1000  0.0053257961529341
                   228   0.027060721042034
                 64.71    0.10165684614077
                 21.06     0.2745748236174
                 7.495    0.44829431892377
                 2.797    0.28490261071525
                0.5215   0.015194859206082
 s    8 1.00
                  6665  -0.00029326965268655
                  1000  -0.0023180354739745
                   228  -0.011499786038565
                 64.71  -0.046826727009787
                 21.06   -0.12846616875047
                 7.495   -0.30126627246289
                 2.797   -0.25563070233011
                0.5215      1.093793361012
 s    1 1.00
                0.1596                   1
 p    3 1.00
                 9.439   0.056979251590039
                 2.002    0.31320721150073
                0.5456    0.76037674173753
 p    1 1.00
                0.1517                   1
 d    1 1.00
                  0.55                   1

8 0
 s    8 1.00
                 11720  0.00070964594651845
                  1759  0.0054672722921914
                 400.8   0.027823118610189
                 113.7    0.10474773971146
                 37.03    0.28292084635691
                 13.27    0.44849523869833
                 5.025    0.27081688521277
                 1.013    0.01545029160744
 s    8 1.00
                 11720  -0.00031444341168873
                  1759  -0.0024821376810179
                 400.8  -0.012316355381583
                 113.7  -0.050538917343672
                 37.03   -0.13938490331632
                 13.27   -0.32507749481778
                 5.025   -0.22984830758785
                 1.013     1.0953793467883
 s    1 1.00
                0.3023                   1
 p    3 1.00
                  17.7   0.062679166281506
                 3.854    0.33353656587936
                 1.046    0.74123964163973
 p    1 1.00
                0.2753                   1
 d    1 1.00
                 1.185                   1

9 0
 s    8 1.00
                  6665  0.00069158396281299
                  1000  0.0053257961529341
                   228   0.027060721042034
                 64.71    0.10165684614077
                 21.06     0.2745748236174
                 7.495    0.44829431892377
                 2.797    0.28490261071525
                0.5215   0.015194859206082
 s    8 1.00
                  6665  -0.00029326965268655
                  1000  -0.0023180354739745
                   228  -0.011499786038565
                 64.71  -0.046826727009787
                 21.06   -0.12846616875047
                 7.495   -0.30126627246289
                 2.797   -0.25563070233011
                0.5215      1.093793361012
 s    1 1.00
                0.1596                   1
 p    3 1.00
                 9.439   0.056979251590039
                 2.002    0.31320721150073
                0.5456    0.76037674173753
 p    1 1.00
                0.1517                   1
 d    1 1.00
                  0.55                   1

10 0
 s    3 1.00
                 13.01   0.033498726389998
                 1.962    0.23480080117413
                0.4446     0.8136829578829
 s    1 1.00
                 0.122                   1
 p    1 1.00
                 0.727                   1

11 0
 s    8 1.00
                  6665  0.00069158396281299
                  1000  0.0053257961529341
                   228   0.027060721042034
                 64.71    0.10165684614077
                 21.06     0.2745748236174
                 7.495    0.44829431892377
                 2.797    0.28490261071525
                0.5215   0.015194859206082
 s    8 1.00
                  6665  -0.00029326965268655
                  1000  -0.0023180354739745
                   228  -0.011499786038565
                 64.71  -0.046826727009787
                 21.06   -0.12846616875047
                 7.495   -0.30126627246289
                 2.797   -0.25563070233011
                0.5215      1.093793361012
 s    1 1.00
                0.1596                   1
 p    3 1.00
                 9.439   0.056979251590039
                 2.002    0.31320721150073
                0.5456    0.76037674173753
 p    1 1.00
                0.1517                   1
 d    1 1.00
                  0.55                   1

12 0
 s    8 1.00
                 11720  0.00070964594651845
                  1759  0.0054672722921914
                 400.8   0.027823118610189
                 113.7    0.10474773971146
                 37.03    0.28292084635691
                 13.27    0.44849523869833
                 5.025    0.27081688521277
                 1.013    0.01545029160744
 s    8 1.00
                 11720  -0.00031444341168873
                  1759  -0.0024821376810179
                 400.8  -0.012316355381583
                 113.7  -0.050538917343672
                 37.03   -0.13938490331632
                 13.27   -0.32507749481778
                 5.025   -0.22984830758785
                 1.013     1.0953793467883
 s    1 1.00
                0.3023                   1
 p    3 1.00
                  17.7   0.062679166281506
                 3.854    0.33353656587936
                 1.046    0.74123964163973
 p    1 1.00
                0.2753                   1
 d    1 1.00
                 1.185                   1

13 0
 s    3 1.00
                 13.01   0.033498726389998
                 1.962    0.23480080117413
                0.4446     0.8136829578829
 s    1 1.00
                 0.122                   1
 p    1 1.00
                 0.727                   1

14 0
 s    3 1.00
                 13.01   0.033498726389998
                 1.962    0.23480080117413
                0.4446     0.8136829578829
 s    1 1.00
                 0.122                   1
 p    1 1.00
                 0.727                   1

15 0
 s    3 1.00
                 13.01   0.033498726389998
                 1.962    0.23480080117413
                0.4446     0.8136829578829
 s    1 1.00
                 0.122                   1
 p    1 1.00
                 0.727                   1

16 0
 s    8 1.00
                 11720  0.00070964594651845
                  1759  0.0054672722921914
                 400.8   0.027823118610189
                 113.7    0.10474773971146
                 37.03    0.28292084635691
                 13.27    0.44849523869833
                 5.025    0.27081688521277
                 1.013    0.01545029160744
 s    8 1.00
                 11720  -0.00031444341168873
                  1759  -0.0024821376810179
                 400.8  -0.012316355381583
                 113.7  -0.050538917343672
                 37.03   -0.13938490331632
                 13.27   -0.32507749481778
                 5.025   -0.22984830758785
                 1.013     1.0953793467883
 s    1 1.00
                0.3023                   1
 p    3 1.00
                  17.7   0.062679166281506
                 3.854    0.33353656587936
                 1.046    0.74123964163973
 p    1 1.00
                0.2753                   1
 d    1 1.00
                 1.185                   1

17 0
 s    3 1.00
                 13.01   0.033498726389998
                 1.962    0.23480080117413
                0.4446     0.8136829578829
 s    1 1.00
                 0.122                   1
 p    1 1.00
                 0.727                   1

18 0
 s    3 1.00
                 13.01   0.033498726389998
                 1.962    0.23480080117413
                0.4446     0.8136829578829
 s    1 1.00
                 0.122                   1
 p    1 1.00
                 0.727                   1

19 0
 s    8 1.00
                 11720  0.00070964594651845
                  1759  0.0054672722921914
                 400.8   0.027823118610189
                 113.7    0.10474773971146
                 37.03    0.28292084635691
                 13.27    0.44849523869833
                 5.025    0.27081688521277
                 1.013    0.01545029160744
 s    8 1.00
                 11720  -0.00031444341168873
                  1759  -0.0024821376810179
                 400.8  -0.012316355381583
                 113.7  -0.050538917343672
                 37.03   -0.13938490331632
                 13.27   -0.32507749481778
                 5.025   -0.22984830758785
                 1.013     1.0953793467883
 s    1 1.00
                0.3023                   1
 p    3 1.00
                  17.7   0.062679166281506
                 3.854    0.33353656587936
                 1.046    0.74123964163973
 p    1 1.00
                0.2753                   1
 d    1 1.00
                 1.185                   1

20 0
 s    3 1.00
                 13.01   0.033498726389998
                 1.962    0.23480080117413
                0.4446     0.8136829578829
 s    1 1.00
                 0.122                   1
 p    1 1.00
                 0.727                   1

21 0
 s    3 1.00
                 13.01   0.033498726389998
                 1.962    0.23480080117413
                0.4446     0.8136829578829
 s    1 1.00
                 0.122                   1
 p    1 1.00
                 0.727                   1

22 0
 s    3 1.00
                 13.01   0.033498726389998
                 1.962    0.23480080117413
                0.4446     0.8136829578829
 s    1 1.00
                 0.122                   1
 p    1 1.00
                 0.727                   1

23 0
 s    3 1.00
                 13.01   0.033498726389998
                 1.962    0.23480080117413
                0.4446     0.8136829578829
 s    1 1.00
                 0.122                   1
 p    1 1.00
                 0.727                   1

24 0
 s    3 1.00
                 13.01   0.033498726389998
                 1.962    0.23480080117413
                0.4446     0.8136829578829
 s    1 1.00
                 0.122                   1
 p    1 1.00
                 0.727                   1

[5d]
[7f]
[9g]

[MO]
 Sym= A
 Ene=     -20.5989454
 Spin= Alpha
 Occup=    2.00000
   1    -0.00019445354506569
   2    -0.0005534038169306
   3    0.0077648785275968
   4    -4.8714242094579e-05
   5    -0.00032768798570885
   6    -0.00066875738013302
   7    0.0023120869114852
   8    -0.00036513392000736
   9    0.0034472452843756
  10    -2.1457330537418e-05
  11    -6.4217343506314e-05
  12    9.609590547913e-05
  13     0.000167180331068
  14    -0.00029473103579978
  15    0.0002494119432645
  16    0.00043686106611496
  17    -0.0030196313064928
  18    0.00019447226585969
  19    0.00038405625078514
  20    0.00028567111454137
  21    0.0005905331379691
  22    -0.00050901640760156
  23    -6.5622644453965e-05
  24    2.9755420725154e-05
  25    9.6816667304015e-07
  26    -1.9674478818561e-05
  27    2.9263142286982e-06
  28    3.959507325892e-05
  29    -0.0012520804183913
  30    -0.00064239055560151
  31      0.01686724018033
  32    -0.0022595799825538
  33    -0.00089101420086284
  34    -0.00076336367077877
  35    -0.019260587335167
  36     -0.00365410064111
  37    0.0043986278604537
  38    -0.00064220637286294
  39    0.00033465996707136
  40    -1.3436513786433e-05
  41    0.00056856870502825
  42    0.00047137116080826
  43    0.00029670799807362
  44    9.0146758596471e-05
  45    -0.0043694050939618
  46    0.00094019359976248
  47    -4.7578709184347e-05
  48    0.00028483953501711
  49    0.0033119640767075
  50    -0.00047272729039217
  51    0.00017665361654222
  52    4.0804528530336e-06
  53    5.9730620232727e-05
  54    1.4305514018966e-05
  55    -3.9353002075473e-05
  56    5.2420856258246e-05
  57    0.00093538814140461
  58    -0.00080036881342363
  59    -0.019663520465078
  60    0.0026897729573802
  61    -0.0020944608668919
  62    0.0023068626926936
  63    -0.008916525985153
  64    -0.0034233627563605
  65    -0.004762303456185
  66    -0.00077264417883441
  67    3.2274466865408e-05
  68    -0.00020677584623287
  69    -3.1786157985872e-05
  70    -0.00030009290843228
  71    -0.0033679931596409
  72    0.0058246043974618
  73    -0.00016915555389789
  74    -0.00028293655079186
  75    7.8883902380921e-05
  76    -0.0026657378163463
  77     0.004823456211924
  78     0.089737859711487
  79     -0.01577864809829
  80    -0.0046392040989023
  81    -0.00086832015113078
  82    -0.050231944420727
  83    -0.017621392597077
  84    0.0097240799735301
  85    -0.0024585581037876
  86    -0.0014226888034502
  87    -0.00018554539399555
  88    0.0021110887905128
  89    0.0022608262492745
  90    0.00082264806488841
  91    -0.00067697657602779
  92    -0.014861767268484
  93    0.0036913723311467
  94    -0.00054781696317759
  95     0.004782515644448
  96    0.0087975559543704
  97    -0.0027544168316587
  98     0.010479962169972
  99    -3.2183819506021e-05
 100    0.00017912877573913
 101    5.7939808773311e-05
 102    0.00012971551069439
 103    -0.00011173229203813
 104    0.00080108995911064
 105    -0.025658265584654
 106     -0.10300234430606
 107     0.024380873306017
 108    -0.011917785902777
 109     0.035894562744959
 110    -0.046714249747796
 111     -0.05791209964479
 112    -0.0035764231209804
 113    0.00042184756453097
 114    -0.00034939657172533
 115    -0.0011044515749898
 116    -0.00028447613515092
 117    0.0004496922348658
 118    -0.010391340989404
 119     0.034776912115475
 120    0.00042682256447077
 121    0.0014316887128801
 122    -0.0010373436357293
 123    0.00054045619770374
 124    0.0041252812119517
 125    -0.017146659340265
 126    -0.0051735065283962
 127    -0.00024969451565254
 128    0.0052393835166687
 129     0.022260262605767
 130     0.027830925719561
 131    0.0076830749234237
 132    -0.0088592728269755
 133     -0.03224578963284
 134    -0.0048675058090235
 135    0.0092155786821099
 136    -0.012146444678529
 137    -0.0017829728380606
 138    -0.017677356943194
 139    0.00075650847649681
 140     -0.10903275087985
 141      0.23386421922964
 142      0.57960032129561
 143    -0.078548737610233
 144      0.18070538619272
 145      0.44572004321515
 146     0.010881962557761
 147     0.010854217299477
 148    -0.0061358950270621
 149    0.0014540787432297
 150    0.0064636947467018
 151    0.00055709785049925
 152    -0.00049324598317769
 153    -2.8525448457888e-05
 154    7.6498819968289e-06
 155    -0.00014340996391628
 156    -0.00071585511853633
 157    0.0036016225167544
 158    0.00021156166159723
 159    -0.00018964095970288
 160    -0.00028562063778066
 161    0.00048037388381976
 162     0.001931703880833
 163    0.00018569704569115
 164    -0.00023915544367378
 165    7.7614965740989e-06
 166    0.00013185648738109
 167     -0.00103030368465
 168    -0.0036155520563388
 169    0.0015191264438341
 170    -0.00082353409403705
 171    0.00013214542263018
 172    0.0018860207251826
 173    -0.0015553756947238
 174    -0.00012394106621564
 175    3.9516211633115e-05
 176    5.5222786567123e-05
 177    1.8762839214131e-05
 178    0.00023208752454187
 179    5.4428921059313e-05
 180    0.0030590047781064
 181    -0.0017471254394802
 182    0.00014557699257719
 183    -0.00020596499843919
 184    -0.00085151302640216
 185    -0.00094833960854534
 186    -0.0072420715703558
 187    -0.00014624198324516
 188    0.00012069239745106
 189    0.00033436917032388
 190    0.0014887636207187
 191    0.0009288100057508
 192    -0.019720345755967
 193    0.00099748021458594
 194    -0.00047417695037589
 195    0.00021205671359688
 196    0.0036702061662036
 197    -0.0068466962978505
 198    0.0001850270507205
 199    -0.00012690564702556
 200    0.00015991000252567
 201    0.00090561915909289
 202    0.00088072262274799
 203    0.00047078550590999
 204     0.057668834664364
 205     0.052027696415789
 206    -0.0016254160806153
 207    -0.001790121498458
 208    -0.00057540845969653
 209    -0.0096397093438389
 210    -0.019493688641663
 211    -0.0010038352890139
 212    -0.00021138354078866
 213    -0.00057557679166847
 214    0.0034049524460309
 215    -0.0039645405830738
 216    -0.0054300237564672
 217     0.010511572871866
 218     0.027383704929608
 219    0.0014821691352728
 220    0.00063444529720472
 221    -0.00013477400996531
 222    0.0003788724332714
 223    -4.0939191241942e-05
 224    0.0013665444227528
 225    -0.0046657411079663
 226    2.378242177839e-05
 227    0.00016037678875043
 228    -0.00014252189157171
