[Molden Format]
made by pyscf v[2.1.0]
[Atoms] (AU)
C   1   6     5.80518952178463     0.50358555603085    -2.01447450495210
O   2   8     7.59006230260208    -0.90749372816926    -2.10619425213399
C   3   6     4.06257668629083     0.88716594424731     0.25526042545400
O   4   8     4.92221121062936    -0.52198770903186     2.35899047472156
C   5   6     1.33654470639501     0.10405776904918    -0.51168492220073
H   6   1     0.89689425433657     0.93209418285884    -2.36575758397362
C   7   6    -0.64932879366180     1.09909683939116     1.38333243551311
O   8   8    -0.00969996419739     0.43834276158024     3.94911375031970
C   9   6    -3.35971006179398     0.18432766564233     0.79610193203064
H   10   1    -4.66165577257433     1.18213140530455     2.06285149374097
C   11   6    -4.19715353225174     0.65517938574345    -1.93554631390739
O   12   8    -6.81065988033421     0.10526341431665    -2.27483908066855
H   13   1     5.22581272007586     1.68491382773245    -3.67455355195552
H   14   1     4.03225036144381     2.94522509253638     0.63780524375420
H   15   1     3.63813663980902    -0.25163782047321     3.65830001755813
O   16   8     1.20169573987217    -2.59733407190845    -0.80186748643669
H   17   1    -0.61314809728088     3.17348700084872     1.28243995772258
H   18   1    -0.91242591335437    -1.12422074821725     4.30347519319814
O   19   8    -3.63012231131474    -2.45370354808476     1.43919651920751
H   20   1    -3.01998643747642    -0.49263081368674    -3.22017268475610
H   21   1    -3.94341055687576     2.65625195302014    -2.42398382532372
H   22   1    -7.07185971499772    -1.58002646891459    -1.60535635788826
H   23   1     2.47305434360030    -3.30624782000391     0.32275766317121
H   24   1    -2.30526934045242    -3.31584195953833     0.48480734753104
[GTO]
1 0
 s    8 1.00
                  6665  0.00069158396281299
                  1000  0.0053257961529341
                   228   0.027060721042034
                 64.71    0.10165684614077
                 21.06     0.2745748236174
                 7.495    0.44829431892377
                 2.797    0.28490261071525
                0.5215   0.015194859206082
 s    8 1.00
                  6665  -0.00029326965268655
                  1000  -0.0023180354739745
                   228  -0.011499786038565
                 64.71  -0.046826727009787
                 21.06   -0.12846616875047
                 7.495   -0.30126627246289
                 2.797   -0.25563070233011
                0.5215      1.093793361012
 s    1 1.00
                0.1596                   1
 p    3 1.00
                 9.439   0.056979251590039
                 2.002    0.31320721150073
                0.5456    0.76037674173753
 p    1 1.00
                0.1517                   1
 d    1 1.00
                  0.55                   1

2 0
 s    8 1.00
                 11720  0.00070964594651845
                  1759  0.0054672722921914
                 400.8   0.027823118610189
                 113.7    0.10474773971146
                 37.03    0.28292084635691
                 13.27    0.44849523869833
                 5.025    0.27081688521277
                 1.013    0.01545029160744
 s    8 1.00
                 11720  -0.00031444341168873
                  1759  -0.0024821376810179
                 400.8  -0.012316355381583
                 113.7  -0.050538917343672
                 37.03   -0.13938490331632
                 13.27   -0.32507749481778
                 5.025   -0.22984830758785
                 1.013     1.0953793467883
 s    1 1.00
                0.3023                   1
 p    3 1.00
                  17.7   0.062679166281506
                 3.854    0.33353656587936
                 1.046    0.74123964163973
 p    1 1.00
                0.2753                   1
 d    1 1.00
                 1.185                   1

3 0
 s    8 1.00
                  6665  0.00069158396281299
                  1000  0.0053257961529341
                   228   0.027060721042034
                 64.71    0.10165684614077
                 21.06     0.2745748236174
                 7.495    0.44829431892377
                 2.797    0.28490261071525
                0.5215   0.015194859206082
 s    8 1.00
                  6665  -0.00029326965268655
                  1000  -0.0023180354739745
                   228  -0.011499786038565
                 64.71  -0.046826727009787
                 21.06   -0.12846616875047
                 7.495   -0.30126627246289
                 2.797   -0.25563070233011
                0.5215      1.093793361012
 s    1 1.00
                0.1596                   1
 p    3 1.00
                 9.439   0.056979251590039
                 2.002    0.31320721150073
                0.5456    0.76037674173753
 p    1 1.00
                0.1517                   1
 d    1 1.00
                  0.55                   1

4 0
 s    8 1.00
                 11720  0.00070964594651845
                  1759  0.0054672722921914
                 400.8   0.027823118610189
                 113.7    0.10474773971146
                 37.03    0.28292084635691
                 13.27    0.44849523869833
                 5.025    0.27081688521277
                 1.013    0.01545029160744
 s    8 1.00
                 11720  -0.00031444341168873
                  1759  -0.0024821376810179
                 400.8  -0.012316355381583
                 113.7  -0.050538917343672
                 37.03   -0.13938490331632
                 13.27   -0.32507749481778
                 5.025   -0.22984830758785
                 1.013     1.0953793467883
 s    1 1.00
                0.3023                   1
 p    3 1.00
                  17.7   0.062679166281506
                 3.854    0.33353656587936
                 1.046    0.74123964163973
 p    1 1.00
                0.2753                   1
 d    1 1.00
                 1.185                   1

5 0
 s    8 1.00
                  6665  0.00069158396281299
                  1000  0.0053257961529341
                   228   0.027060721042034
                 64.71    0.10165684614077
                 21.06     0.2745748236174
                 7.495    0.44829431892377
                 2.797    0.28490261071525
                0.5215   0.015194859206082
 s    8 1.00
                  6665  -0.00029326965268655
                  1000  -0.0023180354739745
                   228  -0.011499786038565
                 64.71  -0.046826727009787
                 21.06   -0.12846616875047
                 7.495   -0.30126627246289
                 2.797   -0.25563070233011
                0.5215      1.093793361012
 s    1 1.00
                0.1596                   1
 p    3 1.00
                 9.439   0.056979251590039
                 2.002    0.31320721150073
                0.5456    0.76037674173753
 p    1 1.00
                0.1517                   1
 d    1 1.00
                  0.55                   1

6 0
 s    3 1.00
                 13.01   0.033498726389998
                 1.962    0.23480080117413
                0.4446     0.8136829578829
 s    1 1.00
                 0.122                   1
 p    1 1.00
                 0.727                   1

7 0
 s    8 1.00
                  6665  0.00069158396281299
                  1000  0.0053257961529341
                   228   0.027060721042034
                 64.71    0.10165684614077
                 21.06     0.2745748236174
                 7.495    0.44829431892377
                 2.797    0.28490261071525
                0.5215   0.015194859206082
 s    8 1.00
                  6665  -0.00029326965268655
                  1000  -0.0023180354739745
                   228  -0.011499786038565
                 64.71  -0.046826727009787
                 21.06   -0.12846616875047
                 7.495   -0.30126627246289
                 2.797   -0.25563070233011
                0.5215      1.093793361012
 s    1 1.00
                0.1596                   1
 p    3 1.00
                 9.439   0.056979251590039
                 2.002    0.31320721150073
                0.5456    0.76037674173753
 p    1 1.00
                0.1517                   1
 d    1 1.00
                  0.55                   1

8 0
 s    8 1.00
                 11720  0.00070964594651845
                  1759  0.0054672722921914
                 400.8   0.027823118610189
                 113.7    0.10474773971146
                 37.03    0.28292084635691
                 13.27    0.44849523869833
                 5.025    0.27081688521277
                 1.013    0.01545029160744
 s    8 1.00
                 11720  -0.00031444341168873
                  1759  -0.0024821376810179
                 400.8  -0.012316355381583
                 113.7  -0.050538917343672
                 37.03   -0.13938490331632
                 13.27   -0.32507749481778
                 5.025   -0.22984830758785
                 1.013     1.0953793467883
 s    1 1.00
                0.3023                   1
 p    3 1.00
                  17.7   0.062679166281506
                 3.854    0.33353656587936
                 1.046    0.74123964163973
 p    1 1.00
                0.2753                   1
 d    1 1.00
                 1.185                   1

9 0
 s    8 1.00
                  6665  0.00069158396281299
                  1000  0.0053257961529341
                   228   0.027060721042034
                 64.71    0.10165684614077
                 21.06     0.2745748236174
                 7.495    0.44829431892377
                 2.797    0.28490261071525
                0.5215   0.015194859206082
 s    8 1.00
                  6665  -0.00029326965268655
                  1000  -0.0023180354739745
                   228  -0.011499786038565
                 64.71  -0.046826727009787
                 21.06   -0.12846616875047
                 7.495   -0.30126627246289
                 2.797   -0.25563070233011
                0.5215      1.093793361012
 s    1 1.00
                0.1596                   1
 p    3 1.00
                 9.439   0.056979251590039
                 2.002    0.31320721150073
                0.5456    0.76037674173753
 p    1 1.00
                0.1517                   1
 d    1 1.00
                  0.55                   1

10 0
 s    3 1.00
                 13.01   0.033498726389998
                 1.962    0.23480080117413
                0.4446     0.8136829578829
 s    1 1.00
                 0.122                   1
 p    1 1.00
                 0.727                   1

11 0
 s    8 1.00
                  6665  0.00069158396281299
                  1000  0.0053257961529341
                   228   0.027060721042034
                 64.71    0.10165684614077
                 21.06     0.2745748236174
                 7.495    0.44829431892377
                 2.797    0.28490261071525
                0.5215   0.015194859206082
 s    8 1.00
                  6665  -0.00029326965268655
                  1000  -0.0023180354739745
                   228  -0.011499786038565
                 64.71  -0.046826727009787
                 21.06   -0.12846616875047
                 7.495   -0.30126627246289
                 2.797   -0.25563070233011
                0.5215      1.093793361012
 s    1 1.00
                0.1596                   1
 p    3 1.00
                 9.439   0.056979251590039
                 2.002    0.31320721150073
                0.5456    0.76037674173753
 p    1 1.00
                0.1517                   1
 d    1 1.00
                  0.55                   1

12 0
 s    8 1.00
                 11720  0.00070964594651845
                  1759  0.0054672722921914
                 400.8   0.027823118610189
                 113.7    0.10474773971146
                 37.03    0.28292084635691
                 13.27    0.44849523869833
                 5.025    0.27081688521277
                 1.013    0.01545029160744
 s    8 1.00
                 11720  -0.00031444341168873
                  1759  -0.0024821376810179
                 400.8  -0.012316355381583
                 113.7  -0.050538917343672
                 37.03   -0.13938490331632
                 13.27   -0.32507749481778
                 5.025   -0.22984830758785
                 1.013     1.0953793467883
 s    1 1.00
                0.3023                   1
 p    3 1.00
                  17.7   0.062679166281506
                 3.854    0.33353656587936
                 1.046    0.74123964163973
 p    1 1.00
                0.2753                   1
 d    1 1.00
                 1.185                   1

13 0
 s    3 1.00
                 13.01   0.033498726389998
                 1.962    0.23480080117413
                0.4446     0.8136829578829
 s    1 1.00
                 0.122                   1
 p    1 1.00
                 0.727                   1

14 0
 s    3 1.00
                 13.01   0.033498726389998
                 1.962    0.23480080117413
                0.4446     0.8136829578829
 s    1 1.00
                 0.122                   1
 p    1 1.00
                 0.727                   1

15 0
 s    3 1.00
                 13.01   0.033498726389998
                 1.962    0.23480080117413
                0.4446     0.8136829578829
 s    1 1.00
                 0.122                   1
 p    1 1.00
                 0.727                   1

16 0
 s    8 1.00
                 11720  0.00070964594651845
                  1759  0.0054672722921914
                 400.8   0.027823118610189
                 113.7    0.10474773971146
                 37.03    0.28292084635691
                 13.27    0.44849523869833
                 5.025    0.27081688521277
                 1.013    0.01545029160744
 s    8 1.00
                 11720  -0.00031444341168873
                  1759  -0.0024821376810179
                 400.8  -0.012316355381583
                 113.7  -0.050538917343672
                 37.03   -0.13938490331632
                 13.27   -0.32507749481778
                 5.025   -0.22984830758785
                 1.013     1.0953793467883
 s    1 1.00
                0.3023                   1
 p    3 1.00
                  17.7   0.062679166281506
                 3.854    0.33353656587936
                 1.046    0.74123964163973
 p    1 1.00
                0.2753                   1
 d    1 1.00
                 1.185                   1

17 0
 s    3 1.00
                 13.01   0.033498726389998
                 1.962    0.23480080117413
                0.4446     0.8136829578829
 s    1 1.00
                 0.122                   1
 p    1 1.00
                 0.727                   1

18 0
 s    3 1.00
                 13.01   0.033498726389998
                 1.962    0.23480080117413
                0.4446     0.8136829578829
 s    1 1.00
                 0.122                   1
 p    1 1.00
                 0.727                   1

19 0
 s    8 1.00
                 11720  0.00070964594651845
                  1759  0.0054672722921914
                 400.8   0.027823118610189
                 113.7    0.10474773971146
                 37.03    0.28292084635691
                 13.27    0.44849523869833
                 5.025    0.27081688521277
                 1.013    0.01545029160744
 s    8 1.00
                 11720  -0.00031444341168873
                  1759  -0.0024821376810179
                 400.8  -0.012316355381583
                 113.7  -0.050538917343672
                 37.03   -0.13938490331632
                 13.27   -0.32507749481778
                 5.025   -0.22984830758785
                 1.013     1.0953793467883
 s    1 1.00
                0.3023                   1
 p    3 1.00
                  17.7   0.062679166281506
                 3.854    0.33353656587936
                 1.046    0.74123964163973
 p    1 1.00
                0.2753                   1
 d    1 1.00
                 1.185                   1

20 0
 s    3 1.00
                 13.01   0.033498726389998
                 1.962    0.23480080117413
                0.4446     0.8136829578829
 s    1 1.00
                 0.122                   1
 p    1 1.00
                 0.727                   1

21 0
 s    3 1.00
                 13.01   0.033498726389998
                 1.962    0.23480080117413
                0.4446     0.8136829578829
 s    1 1.00
                 0.122                   1
 p    1 1.00
                 0.727                   1

22 0
 s    3 1.00
                 13.01   0.033498726389998
                 1.962    0.23480080117413
                0.4446     0.8136829578829
 s    1 1.00
                 0.122                   1
 p    1 1.00
                 0.727                   1

23 0
 s    3 1.00
                 13.01   0.033498726389998
                 1.962    0.23480080117413
                0.4446     0.8136829578829
 s    1 1.00
                 0.122                   1
 p    1 1.00
                 0.727                   1

24 0
 s    3 1.00
                 13.01   0.033498726389998
                 1.962    0.23480080117413
                0.4446     0.8136829578829
 s    1 1.00
                 0.122                   1
 p    1 1.00
                 0.727                   1

[5d]
[7f]
[9g]

[MO]
 Sym= A
 Ene=     -20.5989454
 Spin= Alpha
 Occup=    2.00000
   1    0.00015487092004072
   2    -0.0038622634547768
   3    -0.00093318902356724
   4    0.0007387807491301
   5    -0.0038147479686159
   6    -0.0063300846904457
   7      0.00431744836413
   8    -0.00017019101562241
   9    0.0029228250043273
  10    -0.0006830571118197
  11    -0.00051600845482372
  12    -0.00018500428182773
  13    0.0011709556123334
  14    -0.00020620406045278
  15    7.6540506638059e-05
  16    0.00098751296321959
  17    0.00034028712559187
  18    0.00055494328093293
  19     0.003398724506409
  20    0.0021099579016015
  21    -0.00040464712186521
  22    0.0021144506000467
  23    0.0025380192427211
  24    -1.7335669986793e-05
  25    7.3680299118033e-05
  26    -0.00010968202267453
  27    4.3712417549821e-05
  28    -2.4771699065079e-05
  29    7.8182395391913e-05
  30     0.011018623220448
  31     0.016367338142668
  32    -0.017961640444198
  33    -0.0039159953436003
  34    -0.0062586383224674
  35    -0.032633232461426
  36    -0.00034581001060679
  37     0.010429797374304
  38     -0.00031211499555
  39    0.0011619165677234
  40    -4.9675817173772e-05
  41    -0.0012113673084898
  42    0.0010634154339887
  43    0.00063836749959884
  44    -7.9486767069988e-05
  45    -0.010850972728594
  46    0.0031082056539047
  47    -0.00035017741540103
  48    0.00023019917955436
  49    0.0062735191789898
  50    -0.0005108496937732
  51    -0.0051788766284162
  52    0.00015663104608729
  53    0.00044539214897186
  54    -8.3753276945898e-06
  55    -3.6951578871377e-05
  56    -1.9148452033987e-05
  57    0.0030244783981192
  58    -0.010896296285158
  59    -0.066070405858018
  60     0.017136858560846
  61    -0.019712860303805
  62    -0.021041467873362
  63     0.046256487647239
  64    -0.0016479162279085
  65    -0.034672034054626
  66    -0.005520248664841
  67     -0.00257484683187
  68    -0.0047803153465423
  69     0.011026243266886
  70    0.0018929719646843
  71    -0.0075337935956434
  72    -0.0098144929614133
  73    0.00040395432006124
  74    -0.0007803099629252
  75    -0.0015010930297215
  76    -0.0093938642767013
  77      0.20620095280903
  78        0.211372171302
  79     -0.34398839506195
  80     -0.13569117268161
  81    -0.067019282121669
  82     -0.16873046503583
  83     -0.09042249022405
  84    -0.033314188411772
  85    -0.013204793335066
  86     0.011597375127287
  87    0.0047713144070464
  88     0.022956498080813
  89     0.017058159181809
  90    -0.00088833738041716
  91    -0.0088695696285516
  92    -0.015404681364834
  93     0.013176200029604
  94    -0.0014957426872514
  95     0.020459425458387
  96     0.035311092773382
  97    0.0047600608755011
  98     0.031760852149393
  99    0.0012366378543326
 100    0.0060015411108092
 101    0.0019687838412616
 102    0.0026593224945282
 103    -0.0017099101790187
 104    -0.008876861245447
 105      0.20152897863167
 106      0.15122126971693
 107      0.34933783747635
 108     0.091790498810773
 109     0.067426866966345
 110      0.14415967383047
 111     0.018077768904398
 112    -0.012759706388533
 113    -0.015785253253918
 114    0.0099595962952618
 115     0.001416850344442
 116     0.023169057354011
 117     0.016058237596004
 118    -0.020371251551644
 119    -0.026360880472579
 120    0.0090605749474576
 121    0.00017706759153891
 122    0.00058442603397463
 123    0.0017934355425152
 124    -0.019258137431012
 125    -0.075587359545175
 126    0.0020376443592466
 127    0.0086007165919732
 128    -0.029938503844537
 129    -0.014120858950027
 130       0.0152408720713
 131    -0.038098769448024
 132    -0.0035856637254995
 133     0.010419125147643
 134    0.0029215058997211
 135    0.0048639748483209
 136    0.00096127403212096
 137    -0.00012239149666608
 138    0.0057400309249215
 139     0.017113669445189
 140      0.01707181104906
 141    0.0032580181836928
 142    0.0056269391252338
 143     0.022354835416006
 144    0.0038511456592608
 145     0.016382063955267
 146    -0.0003226968296665
 147    -0.00034818265411127
 148    -0.00019631129129432
 149    -0.00016058386342941
 150    -0.00010951891696926
 151    0.00076530832889951
 152    0.0034577120947642
 153    -0.0001362296314865
 154    -0.00029077388847702
 155    -0.00022502328144733
 156    0.0027220447813342
 157    0.0044951229789479
 158    -0.00027976246791732
 159    -0.00059714928765674
 160    -0.0005338615347482
 161    0.00098764808537407
 162     0.019266499720355
 163    -0.00023724347447139
 164    -5.3118521179945e-05
 165    -0.00019151398141312
 166    0.00026912734688876
 167    -0.0014302947721599
 168    0.00051596232263971
 169    -0.0010000406589713
 170    -0.0080006729107878
 171    -0.00051488526279914
 172    0.0031062268457074
 173    -0.0060331648520139
 174    -0.0011274974065885
 175    -0.00034441995078295
 176    0.00011575238472029
 177    -0.00047820125301776
 178    -2.9214495889835e-05
 179    0.00026850612166689
 180    -0.020904105118143
 181    -0.031578519711865
 182    -0.0070016150273003
 183    -0.0054704394143283
 184    7.2513257650334e-06
 185    -0.018844757060202
 186    -0.025823691584922
 187    0.0019193640449156
 188    0.0010857529037442
 189     0.001292089816977
 190    0.00060196299825791
 191    -0.0064502647814941
 192    -0.027891589214391
 193    -0.012350565849199
 194      -0.0207727094247
 195    0.0060812974578301
 196    -0.041436032676654
 197    -0.031565636824017
 198    0.0023433063923277
 199    -0.0016925582373732
 200    -0.00048014184199626
 201    0.00038863111534506
 202    -0.0013103166576699
 203    0.0061898226138356
 204    -0.0055150466413871
 205    -0.0010031917860566
 206    -0.00081565414777961
 207    0.00056694223359221
 208    -0.001705916833642
 209    -0.0048959781559045
 210    -0.0089418328406227
 211    -0.00038482730452109
 212    0.00041343991783934
 213    -0.001759877901931
 214    0.00037170384847634
 215     0.012643316418188
 216    0.0017979804117254
 217    -2.3972667851836e-05
 218    0.00085931988041879
 219    0.0018367972165592
 220    -0.0041904089743261
 221    -0.00066035520680698
 222    -0.00010098351937545
 223    0.00065937759830627
 224    -0.010773921558287
 225    -0.0049955627708221
 226    -0.002121690674012
 227    -0.0011940113669942
 228    0.0007010129386355
