[Molden Format]
made by pyscf v[2.1.0]
[Atoms] (AU)
C   1   6     5.80518952178463     0.50358555603085    -2.01447450495210
O   2   8     7.59006230260208    -0.90749372816926    -2.10619425213399
C   3   6     4.06257668629083     0.88716594424731     0.25526042545400
O   4   8     4.92221121062936    -0.52198770903186     2.35899047472156
C   5   6     1.33654470639501     0.10405776904918    -0.51168492220073
H   6   1     0.89689425433657     0.93209418285884    -2.36575758397362
C   7   6    -0.64932879366180     1.09909683939116     1.38333243551311
O   8   8    -0.00969996419739     0.43834276158024     3.94911375031970
C   9   6    -3.35971006179398     0.18432766564233     0.79610193203064
H   10   1    -4.66165577257433     1.18213140530455     2.06285149374097
C   11   6    -4.19715353225174     0.65517938574345    -1.93554631390739
O   12   8    -6.81065988033421     0.10526341431665    -2.27483908066855
H   13   1     5.22581272007586     1.68491382773245    -3.67455355195552
H   14   1     4.03225036144381     2.94522509253638     0.63780524375420
H   15   1     3.63813663980902    -0.25163782047321     3.65830001755813
O   16   8     1.20169573987217    -2.59733407190845    -0.80186748643669
H   17   1    -0.61314809728088     3.17348700084872     1.28243995772258
H   18   1    -0.91242591335437    -1.12422074821725     4.30347519319814
O   19   8    -3.63012231131474    -2.45370354808476     1.43919651920751
H   20   1    -3.01998643747642    -0.49263081368674    -3.22017268475610
H   21   1    -3.94341055687576     2.65625195302014    -2.42398382532372
H   22   1    -7.07185971499772    -1.58002646891459    -1.60535635788826
H   23   1     2.47305434360030    -3.30624782000391     0.32275766317121
H   24   1    -2.30526934045242    -3.31584195953833     0.48480734753104
[GTO]
1 0
 s    8 1.00
                  6665  0.00069158396281299
                  1000  0.0053257961529341
                   228   0.027060721042034
                 64.71    0.10165684614077
                 21.06     0.2745748236174
                 7.495    0.44829431892377
                 2.797    0.28490261071525
                0.5215   0.015194859206082
 s    8 1.00
                  6665  -0.00029326965268655
                  1000  -0.0023180354739745
                   228  -0.011499786038565
                 64.71  -0.046826727009787
                 21.06   -0.12846616875047
                 7.495   -0.30126627246289
                 2.797   -0.25563070233011
                0.5215      1.093793361012
 s    1 1.00
                0.1596                   1
 p    3 1.00
                 9.439   0.056979251590039
                 2.002    0.31320721150073
                0.5456    0.76037674173753
 p    1 1.00
                0.1517                   1
 d    1 1.00
                  0.55                   1

2 0
 s    8 1.00
                 11720  0.00070964594651845
                  1759  0.0054672722921914
                 400.8   0.027823118610189
                 113.7    0.10474773971146
                 37.03    0.28292084635691
                 13.27    0.44849523869833
                 5.025    0.27081688521277
                 1.013    0.01545029160744
 s    8 1.00
                 11720  -0.00031444341168873
                  1759  -0.0024821376810179
                 400.8  -0.012316355381583
                 113.7  -0.050538917343672
                 37.03   -0.13938490331632
                 13.27   -0.32507749481778
                 5.025   -0.22984830758785
                 1.013     1.0953793467883
 s    1 1.00
                0.3023                   1
 p    3 1.00
                  17.7   0.062679166281506
                 3.854    0.33353656587936
                 1.046    0.74123964163973
 p    1 1.00
                0.2753                   1
 d    1 1.00
                 1.185                   1

3 0
 s    8 1.00
                  6665  0.00069158396281299
                  1000  0.0053257961529341
                   228   0.027060721042034
                 64.71    0.10165684614077
                 21.06     0.2745748236174
                 7.495    0.44829431892377
                 2.797    0.28490261071525
                0.5215   0.015194859206082
 s    8 1.00
                  6665  -0.00029326965268655
                  1000  -0.0023180354739745
                   228  -0.011499786038565
                 64.71  -0.046826727009787
                 21.06   -0.12846616875047
                 7.495   -0.30126627246289
                 2.797   -0.25563070233011
                0.5215      1.093793361012
 s    1 1.00
                0.1596                   1
 p    3 1.00
                 9.439   0.056979251590039
                 2.002    0.31320721150073
                0.5456    0.76037674173753
 p    1 1.00
                0.1517                   1
 d    1 1.00
                  0.55                   1

4 0
 s    8 1.00
                 11720  0.00070964594651845
                  1759  0.0054672722921914
                 400.8   0.027823118610189
                 113.7    0.10474773971146
                 37.03    0.28292084635691
                 13.27    0.44849523869833
                 5.025    0.27081688521277
                 1.013    0.01545029160744
 s    8 1.00
                 11720  -0.00031444341168873
                  1759  -0.0024821376810179
                 400.8  -0.012316355381583
                 113.7  -0.050538917343672
                 37.03   -0.13938490331632
                 13.27   -0.32507749481778
                 5.025   -0.22984830758785
                 1.013     1.0953793467883
 s    1 1.00
                0.3023                   1
 p    3 1.00
                  17.7   0.062679166281506
                 3.854    0.33353656587936
                 1.046    0.74123964163973
 p    1 1.00
                0.2753                   1
 d    1 1.00
                 1.185                   1

5 0
 s    8 1.00
                  6665  0.00069158396281299
                  1000  0.0053257961529341
                   228   0.027060721042034
                 64.71    0.10165684614077
                 21.06     0.2745748236174
                 7.495    0.44829431892377
                 2.797    0.28490261071525
                0.5215   0.015194859206082
 s    8 1.00
                  6665  -0.00029326965268655
                  1000  -0.0023180354739745
                   228  -0.011499786038565
                 64.71  -0.046826727009787
                 21.06   -0.12846616875047
                 7.495   -0.30126627246289
                 2.797   -0.25563070233011
                0.5215      1.093793361012
 s    1 1.00
                0.1596                   1
 p    3 1.00
                 9.439   0.056979251590039
                 2.002    0.31320721150073
                0.5456    0.76037674173753
 p    1 1.00
                0.1517                   1
 d    1 1.00
                  0.55                   1

6 0
 s    3 1.00
                 13.01   0.033498726389998
                 1.962    0.23480080117413
                0.4446     0.8136829578829
 s    1 1.00
                 0.122                   1
 p    1 1.00
                 0.727                   1

7 0
 s    8 1.00
                  6665  0.00069158396281299
                  1000  0.0053257961529341
                   228   0.027060721042034
                 64.71    0.10165684614077
                 21.06     0.2745748236174
                 7.495    0.44829431892377
                 2.797    0.28490261071525
                0.5215   0.015194859206082
 s    8 1.00
                  6665  -0.00029326965268655
                  1000  -0.0023180354739745
                   228  -0.011499786038565
                 64.71  -0.046826727009787
                 21.06   -0.12846616875047
                 7.495   -0.30126627246289
                 2.797   -0.25563070233011
                0.5215      1.093793361012
 s    1 1.00
                0.1596                   1
 p    3 1.00
                 9.439   0.056979251590039
                 2.002    0.31320721150073
                0.5456    0.76037674173753
 p    1 1.00
                0.1517                   1
 d    1 1.00
                  0.55                   1

8 0
 s    8 1.00
                 11720  0.00070964594651845
                  1759  0.0054672722921914
                 400.8   0.027823118610189
                 113.7    0.10474773971146
                 37.03    0.28292084635691
                 13.27    0.44849523869833
                 5.025    0.27081688521277
                 1.013    0.01545029160744
 s    8 1.00
                 11720  -0.00031444341168873
                  1759  -0.0024821376810179
                 400.8  -0.012316355381583
                 113.7  -0.050538917343672
                 37.03   -0.13938490331632
                 13.27   -0.32507749481778
                 5.025   -0.22984830758785
                 1.013     1.0953793467883
 s    1 1.00
                0.3023                   1
 p    3 1.00
                  17.7   0.062679166281506
                 3.854    0.33353656587936
                 1.046    0.74123964163973
 p    1 1.00
                0.2753                   1
 d    1 1.00
                 1.185                   1

9 0
 s    8 1.00
                  6665  0.00069158396281299
                  1000  0.0053257961529341
                   228   0.027060721042034
                 64.71    0.10165684614077
                 21.06     0.2745748236174
                 7.495    0.44829431892377
                 2.797    0.28490261071525
                0.5215   0.015194859206082
 s    8 1.00
                  6665  -0.00029326965268655
                  1000  -0.0023180354739745
                   228  -0.011499786038565
                 64.71  -0.046826727009787
                 21.06   -0.12846616875047
                 7.495   -0.30126627246289
                 2.797   -0.25563070233011
                0.5215      1.093793361012
 s    1 1.00
                0.1596                   1
 p    3 1.00
                 9.439   0.056979251590039
                 2.002    0.31320721150073
                0.5456    0.76037674173753
 p    1 1.00
                0.1517                   1
 d    1 1.00
                  0.55                   1

10 0
 s    3 1.00
                 13.01   0.033498726389998
                 1.962    0.23480080117413
                0.4446     0.8136829578829
 s    1 1.00
                 0.122                   1
 p    1 1.00
                 0.727                   1

11 0
 s    8 1.00
                  6665  0.00069158396281299
                  1000  0.0053257961529341
                   228   0.027060721042034
                 64.71    0.10165684614077
                 21.06     0.2745748236174
                 7.495    0.44829431892377
                 2.797    0.28490261071525
                0.5215   0.015194859206082
 s    8 1.00
                  6665  -0.00029326965268655
                  1000  -0.0023180354739745
                   228  -0.011499786038565
                 64.71  -0.046826727009787
                 21.06   -0.12846616875047
                 7.495   -0.30126627246289
                 2.797   -0.25563070233011
                0.5215      1.093793361012
 s    1 1.00
                0.1596                   1
 p    3 1.00
                 9.439   0.056979251590039
                 2.002    0.31320721150073
                0.5456    0.76037674173753
 p    1 1.00
                0.1517                   1
 d    1 1.00
                  0.55                   1

12 0
 s    8 1.00
                 11720  0.00070964594651845
                  1759  0.0054672722921914
                 400.8   0.027823118610189
                 113.7    0.10474773971146
                 37.03    0.28292084635691
                 13.27    0.44849523869833
                 5.025    0.27081688521277
                 1.013    0.01545029160744
 s    8 1.00
                 11720  -0.00031444341168873
                  1759  -0.0024821376810179
                 400.8  -0.012316355381583
                 113.7  -0.050538917343672
                 37.03   -0.13938490331632
                 13.27   -0.32507749481778
                 5.025   -0.22984830758785
                 1.013     1.0953793467883
 s    1 1.00
                0.3023                   1
 p    3 1.00
                  17.7   0.062679166281506
                 3.854    0.33353656587936
                 1.046    0.74123964163973
 p    1 1.00
                0.2753                   1
 d    1 1.00
                 1.185                   1

13 0
 s    3 1.00
                 13.01   0.033498726389998
                 1.962    0.23480080117413
                0.4446     0.8136829578829
 s    1 1.00
                 0.122                   1
 p    1 1.00
                 0.727                   1

14 0
 s    3 1.00
                 13.01   0.033498726389998
                 1.962    0.23480080117413
                0.4446     0.8136829578829
 s    1 1.00
                 0.122                   1
 p    1 1.00
                 0.727                   1

15 0
 s    3 1.00
                 13.01   0.033498726389998
                 1.962    0.23480080117413
                0.4446     0.8136829578829
 s    1 1.00
                 0.122                   1
 p    1 1.00
                 0.727                   1

16 0
 s    8 1.00
                 11720  0.00070964594651845
                  1759  0.0054672722921914
                 400.8   0.027823118610189
                 113.7    0.10474773971146
                 37.03    0.28292084635691
                 13.27    0.44849523869833
                 5.025    0.27081688521277
                 1.013    0.01545029160744
 s    8 1.00
                 11720  -0.00031444341168873
                  1759  -0.0024821376810179
                 400.8  -0.012316355381583
                 113.7  -0.050538917343672
                 37.03   -0.13938490331632
                 13.27   -0.32507749481778
                 5.025   -0.22984830758785
                 1.013     1.0953793467883
 s    1 1.00
                0.3023                   1
 p    3 1.00
                  17.7   0.062679166281506
                 3.854    0.33353656587936
                 1.046    0.74123964163973
 p    1 1.00
                0.2753                   1
 d    1 1.00
                 1.185                   1

17 0
 s    3 1.00
                 13.01   0.033498726389998
                 1.962    0.23480080117413
                0.4446     0.8136829578829
 s    1 1.00
                 0.122                   1
 p    1 1.00
                 0.727                   1

18 0
 s    3 1.00
                 13.01   0.033498726389998
                 1.962    0.23480080117413
                0.4446     0.8136829578829
 s    1 1.00
                 0.122                   1
 p    1 1.00
                 0.727                   1

19 0
 s    8 1.00
                 11720  0.00070964594651845
                  1759  0.0054672722921914
                 400.8   0.027823118610189
                 113.7    0.10474773971146
                 37.03    0.28292084635691
                 13.27    0.44849523869833
                 5.025    0.27081688521277
                 1.013    0.01545029160744
 s    8 1.00
                 11720  -0.00031444341168873
                  1759  -0.0024821376810179
                 400.8  -0.012316355381583
                 113.7  -0.050538917343672
                 37.03   -0.13938490331632
                 13.27   -0.32507749481778
                 5.025   -0.22984830758785
                 1.013     1.0953793467883
 s    1 1.00
                0.3023                   1
 p    3 1.00
                  17.7   0.062679166281506
                 3.854    0.33353656587936
                 1.046    0.74123964163973
 p    1 1.00
                0.2753                   1
 d    1 1.00
                 1.185                   1

20 0
 s    3 1.00
                 13.01   0.033498726389998
                 1.962    0.23480080117413
                0.4446     0.8136829578829
 s    1 1.00
                 0.122                   1
 p    1 1.00
                 0.727                   1

21 0
 s    3 1.00
                 13.01   0.033498726389998
                 1.962    0.23480080117413
                0.4446     0.8136829578829
 s    1 1.00
                 0.122                   1
 p    1 1.00
                 0.727                   1

22 0
 s    3 1.00
                 13.01   0.033498726389998
                 1.962    0.23480080117413
                0.4446     0.8136829578829
 s    1 1.00
                 0.122                   1
 p    1 1.00
                 0.727                   1

23 0
 s    3 1.00
                 13.01   0.033498726389998
                 1.962    0.23480080117413
                0.4446     0.8136829578829
 s    1 1.00
                 0.122                   1
 p    1 1.00
                 0.727                   1

24 0
 s    3 1.00
                 13.01   0.033498726389998
                 1.962    0.23480080117413
                0.4446     0.8136829578829
 s    1 1.00
                 0.122                   1
 p    1 1.00
                 0.727                   1

[5d]
[7f]
[9g]

[MO]
 Sym= A
 Ene=     -20.5989454
 Spin= Alpha
 Occup=    2.00000
   1    0.0076721128145262
   2     -0.23455347448244
   3    -0.057072222426876
   4     -0.27183415598948
   5      0.21077325751344
   6    0.0088165775094485
   7     -0.01093783613591
   8    0.0056188719413905
   9     0.001398687016277
  10     0.030701265804857
  11    -0.00034601060894317
  12    -0.0080255685007023
  13    -0.0093666559341002
  14     0.035159050533945
  15     0.010435687071206
  16     -0.26942462032251
  17     -0.18775055816438
  18      0.28803732283932
  19     -0.23455218662107
  20    -0.015564367075813
  21      0.14000038616196
  22     -0.11615506291094
  23    -0.0070061028693428
  24     0.014278016056167
  25    0.0016651395404765
  26    -0.0016302267628567
  27    -0.0053314326280562
  28     0.023504284686094
  29    -0.0011024897941504
  30     0.012305813112336
  31      0.02374775224237
  32     0.012780340298599
  33    -0.0019411067724859
  34    -0.020692941696728
  35    0.00099288535954872
  36     0.014870427890062
  37    -0.028045828260725
  38    0.0064613744280424
  39     0.004022244683055
  40    -0.0062174921364718
  41    -0.0037821434049499
  42    0.0043672488564084
  43    -0.00081667535961688
  44    0.0001957868399499
  45     0.010106488653783
  46    -0.0019831669759702
  47    0.0030444994315942
  48    -0.0038227565585267
  49    0.00013223064221197
  50    0.0033309998912213
  51    -0.0075184164329146
  52    0.00041226897234443
  53    -0.0001269658530946
  54    0.00010787471121685
  55    -0.0001594176504917
  56    0.00059178115228665
  57    -0.00056559608971199
  58    -0.0027260533935401
  59    -0.011020745185968
  60    -0.0042041662367809
  61    -0.0026116890178539
  62    -0.00076070232049177
  63    -0.00037624024216871
  64    -0.0086207156334792
  65     0.001230816546174
  66    -5.1093718179079e-05
  67    -0.00082188718079254
  68    0.00022826838310652
  69    0.0017521851521653
  70    -0.00079592464605541
  71    -0.0010011528632665
  72    0.0021867468719928
  73    -4.5121869838192e-06
  74    0.00012619693520136
  75    0.0002288100721338
  76    -0.00016912382417149
  77    0.0013973696349947
  78     0.010533347709807
  79    0.0024499219972895
  80    -0.00035513317833802
  81    -0.0020569621643217
  82    -0.0014125689202194
  83    -0.0019874206243748
  84    -0.0028584541798646
  85    0.00038958751611139
  86    0.00016823967899099
  87    -5.6673112131331e-05
  88    -0.00043550997473763
  89    -3.7306487751122e-05
  90    5.393117214825e-05
  91    0.00019474024980034
  92    -0.00046953927720533
  93    0.00022425168186561
  94    7.5393132210337e-05
  95    -2.2120372138883e-05
  96    0.0003533469361391
  97    0.00090859794698363
  98    -0.00017249795775742
  99    6.4590042795546e-05
 100    -6.8743278877005e-05
 101    2.6182878298099e-05
 102    -3.7183753564199e-05
 103    -2.1362243611066e-05
 104    0.00022715154862561
 105    -0.00033396437174772
 106    -0.0064808211839766
 107    -0.0015313751367596
 108    -0.0004882107972369
 109    -0.00013294242587998
 110    -0.0037625406486391
 111    -0.00049763220134022
 112    -0.0011325637464667
 113    3.3402840255923e-05
 114    -0.00021096468765492
 115    6.8535760842248e-06
 116    5.2816974146683e-05
 117    -0.00015861034128126
 118    0.00067144444119546
 119    0.0011405327745616
 120    1.3533896499937e-07
 121    -4.4052409058483e-05
 122    2.7242063677253e-05
 123    -0.00012257093970773
 124    -0.00025778893349172
 125    0.00072321283868614
 126    -0.00015116859358157
 127    2.6562003359215e-05
 128    -0.0001055843268183
 129    0.0010448210575349
 130    -0.00073602057155319
 131    -0.00028209582877878
 132    5.8369090628657e-05
 133    -9.3673919804358e-05
 134    3.2411343378555e-05
 135    -1.6601527157626e-05
 136    -8.2271150644843e-05
 137    -6.3233961351311e-06
 138    -5.7927180630264e-05
 139    1.7465111920236e-05
 140    -5.4563855855667e-05
 141    -4.4290707507146e-05
 142    -6.4241142499736e-05
 143    -5.3781382864382e-05
 144    0.00020459390457981
 145    -0.00027879637714112
 146    1.1343771599467e-06
 147    -7.2660669667502e-06
 148    1.1083606376051e-05
 149    1.0583911009281e-05
 150    1.8246841039858e-06
 151     0.018937354126814
 152      0.03213144546084
 153    -0.0085485879343375
 154    0.0069585016226727
 155    -0.00046724865039598
 156    -0.0065040750521784
 157       -0.011933121715
 158    0.0015753910127275
 159    -0.0011250781091728
 160    0.0003714237522427
 161    0.0012294662026742
 162    0.0064421979959984
 163    6.4221186933922e-05
 164     0.000147627673895
 165    -0.00048400259335733
 166    0.00022097731842362
 167    0.00076583995607787
 168    -0.0026839157421331
 169    0.00062779940590966
 170    0.00015189486011429
 171    5.3003391801106e-05
 172    -0.00017138186858528
 173    1.5656081922717e-05
 174    0.00037827670898506
 175    -7.7704968326818e-05
 176    -3.9564576015752e-05
 177    7.2799905313255e-05
 178    -0.00014478630995439
 179    -0.00011487465060231
 180    0.0012652935727868
 181    -0.0009743039965105
 182    0.00025081276509451
 183    5.508917107171e-05
 184    -7.2187531707263e-05
 185    0.00033341135333896
 186    -0.0004219157737695
 187    1.4245943134992e-05
 188    4.3487165117835e-05
 189    0.00010791543458453
 190    -9.6209374530743e-05
 191    -0.0001462277695414
 192    0.0011503138018681
 193    0.00011155354166567
 194    8.4425168465545e-05
 195    5.9343434745823e-06
 196    0.00048256938426558
 197    0.00020265022519716
 198    0.00017514856945331
 199    -1.707158924161e-05
 200    -1.0970409654543e-05
 201    -2.4635929446244e-06
 202    2.0252423282115e-06
 203    -2.8595363838725e-05
 204    -0.00013181836845221
 205    -0.0013102724996872
 206    1.3531115040058e-05
 207    -8.0643065217995e-05
 208    -8.0605269486382e-05
 209    1.233258106171e-05
 210    0.0004135517199564
 211    -8.9175063330836e-05
 212    -4.4944626396751e-06
 213    9.7678432756016e-06
 214    6.6874916071219e-05
 215    5.2450109458226e-06
 216    -3.4055124825043e-05
 217    2.7468347072979e-05
 218    -3.6859892940597e-05
 219    0.00078515088572797
 220    0.0013379131913226
 221    0.00013817768981649
 222    0.00033086918471905
 223    -0.00027227011879391
 224    0.00015160370887299
 225    -0.0011673871663368
 226    -4.4417515839688e-05
 227    -7.0469232639528e-05
 228    -5.5763843444283e-05
