[Molden Format]
made by pyscf v[2.1.0]
[Atoms] (AU)
C   1   6     5.80518952178463     0.50358555603085    -2.01447450495210
O   2   8     7.59006230260208    -0.90749372816926    -2.10619425213399
C   3   6     4.06257668629083     0.88716594424731     0.25526042545400
O   4   8     4.92221121062936    -0.52198770903186     2.35899047472156
C   5   6     1.33654470639501     0.10405776904918    -0.51168492220073
H   6   1     0.89689425433657     0.93209418285884    -2.36575758397362
C   7   6    -0.64932879366180     1.09909683939116     1.38333243551311
O   8   8    -0.00969996419739     0.43834276158024     3.94911375031970
C   9   6    -3.35971006179398     0.18432766564233     0.79610193203064
H   10   1    -4.66165577257433     1.18213140530455     2.06285149374097
C   11   6    -4.19715353225174     0.65517938574345    -1.93554631390739
O   12   8    -6.81065988033421     0.10526341431665    -2.27483908066855
H   13   1     5.22581272007586     1.68491382773245    -3.67455355195552
H   14   1     4.03225036144381     2.94522509253638     0.63780524375420
H   15   1     3.63813663980902    -0.25163782047321     3.65830001755813
O   16   8     1.20169573987217    -2.59733407190845    -0.80186748643669
H   17   1    -0.61314809728088     3.17348700084872     1.28243995772258
H   18   1    -0.91242591335437    -1.12422074821725     4.30347519319814
O   19   8    -3.63012231131474    -2.45370354808476     1.43919651920751
H   20   1    -3.01998643747642    -0.49263081368674    -3.22017268475610
H   21   1    -3.94341055687576     2.65625195302014    -2.42398382532372
H   22   1    -7.07185971499772    -1.58002646891459    -1.60535635788826
H   23   1     2.47305434360030    -3.30624782000391     0.32275766317121
H   24   1    -2.30526934045242    -3.31584195953833     0.48480734753104
[GTO]
1 0
 s    8 1.00
                  6665  0.00069158396281299
                  1000  0.0053257961529341
                   228   0.027060721042034
                 64.71    0.10165684614077
                 21.06     0.2745748236174
                 7.495    0.44829431892377
                 2.797    0.28490261071525
                0.5215   0.015194859206082
 s    8 1.00
                  6665  -0.00029326965268655
                  1000  -0.0023180354739745
                   228  -0.011499786038565
                 64.71  -0.046826727009787
                 21.06   -0.12846616875047
                 7.495   -0.30126627246289
                 2.797   -0.25563070233011
                0.5215      1.093793361012
 s    1 1.00
                0.1596                   1
 p    3 1.00
                 9.439   0.056979251590039
                 2.002    0.31320721150073
                0.5456    0.76037674173753
 p    1 1.00
                0.1517                   1
 d    1 1.00
                  0.55                   1

2 0
 s    8 1.00
                 11720  0.00070964594651845
                  1759  0.0054672722921914
                 400.8   0.027823118610189
                 113.7    0.10474773971146
                 37.03    0.28292084635691
                 13.27    0.44849523869833
                 5.025    0.27081688521277
                 1.013    0.01545029160744
 s    8 1.00
                 11720  -0.00031444341168873
                  1759  -0.0024821376810179
                 400.8  -0.012316355381583
                 113.7  -0.050538917343672
                 37.03   -0.13938490331632
                 13.27   -0.32507749481778
                 5.025   -0.22984830758785
                 1.013     1.0953793467883
 s    1 1.00
                0.3023                   1
 p    3 1.00
                  17.7   0.062679166281506
                 3.854    0.33353656587936
                 1.046    0.74123964163973
 p    1 1.00
                0.2753                   1
 d    1 1.00
                 1.185                   1

3 0
 s    8 1.00
                  6665  0.00069158396281299
                  1000  0.0053257961529341
                   228   0.027060721042034
                 64.71    0.10165684614077
                 21.06     0.2745748236174
                 7.495    0.44829431892377
                 2.797    0.28490261071525
                0.5215   0.015194859206082
 s    8 1.00
                  6665  -0.00029326965268655
                  1000  -0.0023180354739745
                   228  -0.011499786038565
                 64.71  -0.046826727009787
                 21.06   -0.12846616875047
                 7.495   -0.30126627246289
                 2.797   -0.25563070233011
                0.5215      1.093793361012
 s    1 1.00
                0.1596                   1
 p    3 1.00
                 9.439   0.056979251590039
                 2.002    0.31320721150073
                0.5456    0.76037674173753
 p    1 1.00
                0.1517                   1
 d    1 1.00
                  0.55                   1

4 0
 s    8 1.00
                 11720  0.00070964594651845
                  1759  0.0054672722921914
                 400.8   0.027823118610189
                 113.7    0.10474773971146
                 37.03    0.28292084635691
                 13.27    0.44849523869833
                 5.025    0.27081688521277
                 1.013    0.01545029160744
 s    8 1.00
                 11720  -0.00031444341168873
                  1759  -0.0024821376810179
                 400.8  -0.012316355381583
                 113.7  -0.050538917343672
                 37.03   -0.13938490331632
                 13.27   -0.32507749481778
                 5.025   -0.22984830758785
                 1.013     1.0953793467883
 s    1 1.00
                0.3023                   1
 p    3 1.00
                  17.7   0.062679166281506
                 3.854    0.33353656587936
                 1.046    0.74123964163973
 p    1 1.00
                0.2753                   1
 d    1 1.00
                 1.185                   1

5 0
 s    8 1.00
                  6665  0.00069158396281299
                  1000  0.0053257961529341
                   228   0.027060721042034
                 64.71    0.10165684614077
                 21.06     0.2745748236174
                 7.495    0.44829431892377
                 2.797    0.28490261071525
                0.5215   0.015194859206082
 s    8 1.00
                  6665  -0.00029326965268655
                  1000  -0.0023180354739745
                   228  -0.011499786038565
                 64.71  -0.046826727009787
                 21.06   -0.12846616875047
                 7.495   -0.30126627246289
                 2.797   -0.25563070233011
                0.5215      1.093793361012
 s    1 1.00
                0.1596                   1
 p    3 1.00
                 9.439   0.056979251590039
                 2.002    0.31320721150073
                0.5456    0.76037674173753
 p    1 1.00
                0.1517                   1
 d    1 1.00
                  0.55                   1

6 0
 s    3 1.00
                 13.01   0.033498726389998
                 1.962    0.23480080117413
                0.4446     0.8136829578829
 s    1 1.00
                 0.122                   1
 p    1 1.00
                 0.727                   1

7 0
 s    8 1.00
                  6665  0.00069158396281299
                  1000  0.0053257961529341
                   228   0.027060721042034
                 64.71    0.10165684614077
                 21.06     0.2745748236174
                 7.495    0.44829431892377
                 2.797    0.28490261071525
                0.5215   0.015194859206082
 s    8 1.00
                  6665  -0.00029326965268655
                  1000  -0.0023180354739745
                   228  -0.011499786038565
                 64.71  -0.046826727009787
                 21.06   -0.12846616875047
                 7.495   -0.30126627246289
                 2.797   -0.25563070233011
                0.5215      1.093793361012
 s    1 1.00
                0.1596                   1
 p    3 1.00
                 9.439   0.056979251590039
                 2.002    0.31320721150073
                0.5456    0.76037674173753
 p    1 1.00
                0.1517                   1
 d    1 1.00
                  0.55                   1

8 0
 s    8 1.00
                 11720  0.00070964594651845
                  1759  0.0054672722921914
                 400.8   0.027823118610189
                 113.7    0.10474773971146
                 37.03    0.28292084635691
                 13.27    0.44849523869833
                 5.025    0.27081688521277
                 1.013    0.01545029160744
 s    8 1.00
                 11720  -0.00031444341168873
                  1759  -0.0024821376810179
                 400.8  -0.012316355381583
                 113.7  -0.050538917343672
                 37.03   -0.13938490331632
                 13.27   -0.32507749481778
                 5.025   -0.22984830758785
                 1.013     1.0953793467883
 s    1 1.00
                0.3023                   1
 p    3 1.00
                  17.7   0.062679166281506
                 3.854    0.33353656587936
                 1.046    0.74123964163973
 p    1 1.00
                0.2753                   1
 d    1 1.00
                 1.185                   1

9 0
 s    8 1.00
                  6665  0.00069158396281299
                  1000  0.0053257961529341
                   228   0.027060721042034
                 64.71    0.10165684614077
                 21.06     0.2745748236174
                 7.495    0.44829431892377
                 2.797    0.28490261071525
                0.5215   0.015194859206082
 s    8 1.00
                  6665  -0.00029326965268655
                  1000  -0.0023180354739745
                   228  -0.011499786038565
                 64.71  -0.046826727009787
                 21.06   -0.12846616875047
                 7.495   -0.30126627246289
                 2.797   -0.25563070233011
                0.5215      1.093793361012
 s    1 1.00
                0.1596                   1
 p    3 1.00
                 9.439   0.056979251590039
                 2.002    0.31320721150073
                0.5456    0.76037674173753
 p    1 1.00
                0.1517                   1
 d    1 1.00
                  0.55                   1

10 0
 s    3 1.00
                 13.01   0.033498726389998
                 1.962    0.23480080117413
                0.4446     0.8136829578829
 s    1 1.00
                 0.122                   1
 p    1 1.00
                 0.727                   1

11 0
 s    8 1.00
                  6665  0.00069158396281299
                  1000  0.0053257961529341
                   228   0.027060721042034
                 64.71    0.10165684614077
                 21.06     0.2745748236174
                 7.495    0.44829431892377
                 2.797    0.28490261071525
                0.5215   0.015194859206082
 s    8 1.00
                  6665  -0.00029326965268655
                  1000  -0.0023180354739745
                   228  -0.011499786038565
                 64.71  -0.046826727009787
                 21.06   -0.12846616875047
                 7.495   -0.30126627246289
                 2.797   -0.25563070233011
                0.5215      1.093793361012
 s    1 1.00
                0.1596                   1
 p    3 1.00
                 9.439   0.056979251590039
                 2.002    0.31320721150073
                0.5456    0.76037674173753
 p    1 1.00
                0.1517                   1
 d    1 1.00
                  0.55                   1

12 0
 s    8 1.00
                 11720  0.00070964594651845
                  1759  0.0054672722921914
                 400.8   0.027823118610189
                 113.7    0.10474773971146
                 37.03    0.28292084635691
                 13.27    0.44849523869833
                 5.025    0.27081688521277
                 1.013    0.01545029160744
 s    8 1.00
                 11720  -0.00031444341168873
                  1759  -0.0024821376810179
                 400.8  -0.012316355381583
                 113.7  -0.050538917343672
                 37.03   -0.13938490331632
                 13.27   -0.32507749481778
                 5.025   -0.22984830758785
                 1.013     1.0953793467883
 s    1 1.00
                0.3023                   1
 p    3 1.00
                  17.7   0.062679166281506
                 3.854    0.33353656587936
                 1.046    0.74123964163973
 p    1 1.00
                0.2753                   1
 d    1 1.00
                 1.185                   1

13 0
 s    3 1.00
                 13.01   0.033498726389998
                 1.962    0.23480080117413
                0.4446     0.8136829578829
 s    1 1.00
                 0.122                   1
 p    1 1.00
                 0.727                   1

14 0
 s    3 1.00
                 13.01   0.033498726389998
                 1.962    0.23480080117413
                0.4446     0.8136829578829
 s    1 1.00
                 0.122                   1
 p    1 1.00
                 0.727                   1

15 0
 s    3 1.00
                 13.01   0.033498726389998
                 1.962    0.23480080117413
                0.4446     0.8136829578829
 s    1 1.00
                 0.122                   1
 p    1 1.00
                 0.727                   1

16 0
 s    8 1.00
                 11720  0.00070964594651845
                  1759  0.0054672722921914
                 400.8   0.027823118610189
                 113.7    0.10474773971146
                 37.03    0.28292084635691
                 13.27    0.44849523869833
                 5.025    0.27081688521277
                 1.013    0.01545029160744
 s    8 1.00
                 11720  -0.00031444341168873
                  1759  -0.0024821376810179
                 400.8  -0.012316355381583
                 113.7  -0.050538917343672
                 37.03   -0.13938490331632
                 13.27   -0.32507749481778
                 5.025   -0.22984830758785
                 1.013     1.0953793467883
 s    1 1.00
                0.3023                   1
 p    3 1.00
                  17.7   0.062679166281506
                 3.854    0.33353656587936
                 1.046    0.74123964163973
 p    1 1.00
                0.2753                   1
 d    1 1.00
                 1.185                   1

17 0
 s    3 1.00
                 13.01   0.033498726389998
                 1.962    0.23480080117413
                0.4446     0.8136829578829
 s    1 1.00
                 0.122                   1
 p    1 1.00
                 0.727                   1

18 0
 s    3 1.00
                 13.01   0.033498726389998
                 1.962    0.23480080117413
                0.4446     0.8136829578829
 s    1 1.00
                 0.122                   1
 p    1 1.00
                 0.727                   1

19 0
 s    8 1.00
                 11720  0.00070964594651845
                  1759  0.0054672722921914
                 400.8   0.027823118610189
                 113.7    0.10474773971146
                 37.03    0.28292084635691
                 13.27    0.44849523869833
                 5.025    0.27081688521277
                 1.013    0.01545029160744
 s    8 1.00
                 11720  -0.00031444341168873
                  1759  -0.0024821376810179
                 400.8  -0.012316355381583
                 113.7  -0.050538917343672
                 37.03   -0.13938490331632
                 13.27   -0.32507749481778
                 5.025   -0.22984830758785
                 1.013     1.0953793467883
 s    1 1.00
                0.3023                   1
 p    3 1.00
                  17.7   0.062679166281506
                 3.854    0.33353656587936
                 1.046    0.74123964163973
 p    1 1.00
                0.2753                   1
 d    1 1.00
                 1.185                   1

20 0
 s    3 1.00
                 13.01   0.033498726389998
                 1.962    0.23480080117413
                0.4446     0.8136829578829
 s    1 1.00
                 0.122                   1
 p    1 1.00
                 0.727                   1

21 0
 s    3 1.00
                 13.01   0.033498726389998
                 1.962    0.23480080117413
                0.4446     0.8136829578829
 s    1 1.00
                 0.122                   1
 p    1 1.00
                 0.727                   1

22 0
 s    3 1.00
                 13.01   0.033498726389998
                 1.962    0.23480080117413
                0.4446     0.8136829578829
 s    1 1.00
                 0.122                   1
 p    1 1.00
                 0.727                   1

23 0
 s    3 1.00
                 13.01   0.033498726389998
                 1.962    0.23480080117413
                0.4446     0.8136829578829
 s    1 1.00
                 0.122                   1
 p    1 1.00
                 0.727                   1

24 0
 s    3 1.00
                 13.01   0.033498726389998
                 1.962    0.23480080117413
                0.4446     0.8136829578829
 s    1 1.00
                 0.122                   1
 p    1 1.00
                 0.727                   1

[5d]
[7f]
[9g]

[MO]
 Sym= A
 Ene=     -20.5989454
 Spin= Alpha
 Occup=    2.00000
   1    -0.00099824482064202
   2    -0.002507998414792
   3     0.006364247576682
   4     0.003228463461787
   5    0.0027327796851558
   6    0.00028619540221591
   7    -0.001358443496103
   8    -0.0038450465479376
   9    0.0037583255954083
  10    -0.00050945046738529
  11    -0.0004229733164807
  12    0.00035107758177623
  13    -0.00058789228524917
  14    -0.00045399486834935
  15    0.0004151783327748
  16    0.0005220553447915
  17    -0.0049725065417409
  18    0.00056513662093571
  19    0.00011915313916867
  20    -0.0005371499301696
  21    0.0019744401780576
  22    -0.0002956764278175
  23    -0.0020563063823337
  24    4.4136264980531e-05
  25    -6.8355327465611e-06
  26    3.8683101428425e-05
  27    -0.00025625735129995
  28    9.1943068204993e-05
  29    5.0834818804117e-05
  30    -0.010896940373924
  31    -0.041722743128851
  32     0.015432554215913
  33     0.012145894263015
  34    0.0035363208595175
  35     0.022944991019611
  36    0.0047228509802847
  37     0.003963635812328
  38    -0.0018925629986722
  39    0.00066927182257575
  40    0.00030198034329217
  41    -0.001559112140122
  42    -0.0010915240830675
  43    -0.0011883041323767
  44    -0.0040567323354557
  45    0.0013612943637561
  46    0.0060600242293119
  47    0.0074582322459164
  48    0.0038394187891177
  49    -0.0017181988789682
  50    0.0072055417355878
  51    0.0023767201142984
  52    -0.00051299816469577
  53    0.00021754206249485
  54    0.00095638324289619
  55    -0.00052137937282827
  56    0.0010369819626303
  57    -0.0016785535317512
  58    -0.024529651961792
  59    -0.032071948024317
  60    0.0048267444813073
  61     0.042479676673519
  62     0.005032674111816
  63     0.020384411750967
  64     0.052651685051113
  65     0.011170845792591
  66    -0.00062820138286182
  67    -0.00084877886836242
  68    -0.015228250256987
  69    -0.0032794355683298
  70     -0.01676187343705
  71     0.024585467060815
  72     0.028164043247554
  73    -0.0013319503052039
  74    -0.001471418201903
  75    -0.0013417045810187
  76    -0.0019146448137196
  77    -0.0011359246601266
  78     0.024012564075288
  79    0.00059647772818089
  80    0.00052897312166696
  81    -0.005721936068974
  82    -0.013519796559191
  83      -0.0255840347814
  84    -0.0040286912924806
  85    0.0016619961703979
  86    0.00051713190460102
  87    -0.00039120727515059
  88    0.0014148267129974
  89    0.0010349977128618
  90    0.00051320202515429
  91    0.00070444747777284
  92    -0.0062625600744041
  93    -0.00074789566584471
  94    0.0020533255295506
  95    -9.0454839574206e-05
  96    0.00096142441284793
  97    0.0042088609187081
  98    0.0006043624447936
  99    -5.0625733284725e-05
 100    -5.4720103034422e-05
 101    0.00023490525842521
 102    6.1208885462086e-05
 103    -0.00020355548033632
 104    0.0016749191290112
 105    0.0041400320863841
 106    -0.021807734129686
 107    0.0012943361004788
 108    -0.0012847294041989
 109    -0.00087845223016327
 110    -0.017674605583353
 111    0.0076018138553968
 112    -0.0055459853321141
 113    0.00061887531826844
 114    1.7187303074702e-05
 115    -0.0001860679935251
 116    -0.00010210875998417
 117    0.00023150322858393
 118    -0.00074838665860456
 119    -0.0030185612082153
 120    0.00025715749672904
 121    -0.00032905933574529
 122    0.0003279376917248
 123    -0.0011017057992131
 124    -0.00072676607528216
 125    0.0092238087436658
 126    0.0012326092631569
 127    -0.0023753908720146
 128    -6.3150840054743e-05
 129     0.012219004472294
 130    -0.0056271731239828
 131    -0.0083675748558992
 132    -0.00017687994903079
 133    -0.00027423943067387
 134    5.5019791844437e-05
 135    -0.00016106229498586
 136    -0.00023135161995938
 137    -0.00034053297437349
 138    -0.00057872963075141
 139    0.0034612525528207
 140    2.2886479193007e-05
 141    -5.0852695609611e-06
 142    2.6703490984199e-05
 143    0.00083413341491889
 144    0.0018312337683993
 145    0.0003185182330852
 146    -7.3752402764196e-06
 147    1.186945197788e-05
 148    4.4776996926052e-05
 149    8.5307055194506e-05
 150    -1.1697585518995e-05
 151    0.00088236340195417
 152    0.0005688848472086
 153    0.00030198772888562
 154    0.00014542047236559
 155    2.3861822867159e-05
 156    0.0047491507486531
 157     0.004216370584719
 158    0.0011587055205183
 159    0.00055675499239736
 160    0.00044045026053745
 161    -0.0031868176747983
 162     0.002555895782399
 163    -0.0001964766626236
 164    0.00011000335082402
 165    0.00039397733667225
 166    -0.0066000032032654
 167      0.22874319011113
 168      0.16196967658229
 169      0.28646749240609
 170     -0.18016109583735
 171      0.25334404525682
 172      0.13992334013869
 173     -0.07327550525424
 174      0.12573658596146
 175    0.0050951336211477
 176     0.013692017621449
 177    -0.003379435719186
 178    0.0094113827885098
 179    -0.0024899897381965
 180    -0.00052999869963049
 181    0.0019038039850229
 182    0.00030298934543856
 183    -0.00047087883469963
 184    -0.00022389545647279
 185    -0.0016777754522582
 186    0.0044829265615352
 187    0.00033444730655809
 188    0.00071310588242897
 189    -4.0185982988911e-05
 190    -0.00034787094852422
 191    -0.00017878565748401
 192    0.0079964480714102
 193    0.00099714080051074
 194    0.00050689668764622
 195    -0.0016137957810328
 196    0.0018711269892131
 197    0.0018499379245848
 198    -0.0022459852850337
 199    1.5690273396914e-05
 200    0.00018892776219618
 201    -0.00015986715074452
 202    -0.00031545032380533
 203    0.00021694597869542
 204    -0.00034632955577173
 205    -0.016391456856551
 206    -0.00030971670252911
 207    5.1507264020865e-05
 208    -0.00082971245151202
 209    -0.002653121948082
 210    -0.00037271926602842
 211    -0.00054484201051967
 212    0.00037109383929917
 213    8.1223615686958e-05
 214    -4.2418424439766e-05
 215    0.0012282755754628
 216    6.5459064645429e-05
 217    5.8047354291658e-05
 218    -0.00011195839382006
 219      0.40714812826777
 220      0.05899563493971
 221    -0.043125783956515
 222     0.026652959497672
 223    -0.035684152663733
 224    -0.0043127628274607
 225    -0.0031543335952303
 226    -0.00053515496845834
 227    -0.00042008779320699
 228    0.0014076072644593
