[Molden Format]
made by pyscf v[2.1.0]
[Atoms] (AU)
C   1   6     5.80518952178463     0.50358555603085    -2.01447450495210
O   2   8     7.59006230260208    -0.90749372816926    -2.10619425213399
C   3   6     4.06257668629083     0.88716594424731     0.25526042545400
O   4   8     4.92221121062936    -0.52198770903186     2.35899047472156
C   5   6     1.33654470639501     0.10405776904918    -0.51168492220073
H   6   1     0.89689425433657     0.93209418285884    -2.36575758397362
C   7   6    -0.64932879366180     1.09909683939116     1.38333243551311
O   8   8    -0.00969996419739     0.43834276158024     3.94911375031970
C   9   6    -3.35971006179398     0.18432766564233     0.79610193203064
H   10   1    -4.66165577257433     1.18213140530455     2.06285149374097
C   11   6    -4.19715353225174     0.65517938574345    -1.93554631390739
O   12   8    -6.81065988033421     0.10526341431665    -2.27483908066855
H   13   1     5.22581272007586     1.68491382773245    -3.67455355195552
H   14   1     4.03225036144381     2.94522509253638     0.63780524375420
H   15   1     3.63813663980902    -0.25163782047321     3.65830001755813
O   16   8     1.20169573987217    -2.59733407190845    -0.80186748643669
H   17   1    -0.61314809728088     3.17348700084872     1.28243995772258
H   18   1    -0.91242591335437    -1.12422074821725     4.30347519319814
O   19   8    -3.63012231131474    -2.45370354808476     1.43919651920751
H   20   1    -3.01998643747642    -0.49263081368674    -3.22017268475610
H   21   1    -3.94341055687576     2.65625195302014    -2.42398382532372
H   22   1    -7.07185971499772    -1.58002646891459    -1.60535635788826
H   23   1     2.47305434360030    -3.30624782000391     0.32275766317121
H   24   1    -2.30526934045242    -3.31584195953833     0.48480734753104
[GTO]
1 0
 s    8 1.00
                  6665  0.00069158396281299
                  1000  0.0053257961529341
                   228   0.027060721042034
                 64.71    0.10165684614077
                 21.06     0.2745748236174
                 7.495    0.44829431892377
                 2.797    0.28490261071525
                0.5215   0.015194859206082
 s    8 1.00
                  6665  -0.00029326965268655
                  1000  -0.0023180354739745
                   228  -0.011499786038565
                 64.71  -0.046826727009787
                 21.06   -0.12846616875047
                 7.495   -0.30126627246289
                 2.797   -0.25563070233011
                0.5215      1.093793361012
 s    1 1.00
                0.1596                   1
 p    3 1.00
                 9.439   0.056979251590039
                 2.002    0.31320721150073
                0.5456    0.76037674173753
 p    1 1.00
                0.1517                   1
 d    1 1.00
                  0.55                   1

2 0
 s    8 1.00
                 11720  0.00070964594651845
                  1759  0.0054672722921914
                 400.8   0.027823118610189
                 113.7    0.10474773971146
                 37.03    0.28292084635691
                 13.27    0.44849523869833
                 5.025    0.27081688521277
                 1.013    0.01545029160744
 s    8 1.00
                 11720  -0.00031444341168873
                  1759  -0.0024821376810179
                 400.8  -0.012316355381583
                 113.7  -0.050538917343672
                 37.03   -0.13938490331632
                 13.27   -0.32507749481778
                 5.025   -0.22984830758785
                 1.013     1.0953793467883
 s    1 1.00
                0.3023                   1
 p    3 1.00
                  17.7   0.062679166281506
                 3.854    0.33353656587936
                 1.046    0.74123964163973
 p    1 1.00
                0.2753                   1
 d    1 1.00
                 1.185                   1

3 0
 s    8 1.00
                  6665  0.00069158396281299
                  1000  0.0053257961529341
                   228   0.027060721042034
                 64.71    0.10165684614077
                 21.06     0.2745748236174
                 7.495    0.44829431892377
                 2.797    0.28490261071525
                0.5215   0.015194859206082
 s    8 1.00
                  6665  -0.00029326965268655
                  1000  -0.0023180354739745
                   228  -0.011499786038565
                 64.71  -0.046826727009787
                 21.06   -0.12846616875047
                 7.495   -0.30126627246289
                 2.797   -0.25563070233011
                0.5215      1.093793361012
 s    1 1.00
                0.1596                   1
 p    3 1.00
                 9.439   0.056979251590039
                 2.002    0.31320721150073
                0.5456    0.76037674173753
 p    1 1.00
                0.1517                   1
 d    1 1.00
                  0.55                   1

4 0
 s    8 1.00
                 11720  0.00070964594651845
                  1759  0.0054672722921914
                 400.8   0.027823118610189
                 113.7    0.10474773971146
                 37.03    0.28292084635691
                 13.27    0.44849523869833
                 5.025    0.27081688521277
                 1.013    0.01545029160744
 s    8 1.00
                 11720  -0.00031444341168873
                  1759  -0.0024821376810179
                 400.8  -0.012316355381583
                 113.7  -0.050538917343672
                 37.03   -0.13938490331632
                 13.27   -0.32507749481778
                 5.025   -0.22984830758785
                 1.013     1.0953793467883
 s    1 1.00
                0.3023                   1
 p    3 1.00
                  17.7   0.062679166281506
                 3.854    0.33353656587936
                 1.046    0.74123964163973
 p    1 1.00
                0.2753                   1
 d    1 1.00
                 1.185                   1

5 0
 s    8 1.00
                  6665  0.00069158396281299
                  1000  0.0053257961529341
                   228   0.027060721042034
                 64.71    0.10165684614077
                 21.06     0.2745748236174
                 7.495    0.44829431892377
                 2.797    0.28490261071525
                0.5215   0.015194859206082
 s    8 1.00
                  6665  -0.00029326965268655
                  1000  -0.0023180354739745
                   228  -0.011499786038565
                 64.71  -0.046826727009787
                 21.06   -0.12846616875047
                 7.495   -0.30126627246289
                 2.797   -0.25563070233011
                0.5215      1.093793361012
 s    1 1.00
                0.1596                   1
 p    3 1.00
                 9.439   0.056979251590039
                 2.002    0.31320721150073
                0.5456    0.76037674173753
 p    1 1.00
                0.1517                   1
 d    1 1.00
                  0.55                   1

6 0
 s    3 1.00
                 13.01   0.033498726389998
                 1.962    0.23480080117413
                0.4446     0.8136829578829
 s    1 1.00
                 0.122                   1
 p    1 1.00
                 0.727                   1

7 0
 s    8 1.00
                  6665  0.00069158396281299
                  1000  0.0053257961529341
                   228   0.027060721042034
                 64.71    0.10165684614077
                 21.06     0.2745748236174
                 7.495    0.44829431892377
                 2.797    0.28490261071525
                0.5215   0.015194859206082
 s    8 1.00
                  6665  -0.00029326965268655
                  1000  -0.0023180354739745
                   228  -0.011499786038565
                 64.71  -0.046826727009787
                 21.06   -0.12846616875047
                 7.495   -0.30126627246289
                 2.797   -0.25563070233011
                0.5215      1.093793361012
 s    1 1.00
                0.1596                   1
 p    3 1.00
                 9.439   0.056979251590039
                 2.002    0.31320721150073
                0.5456    0.76037674173753
 p    1 1.00
                0.1517                   1
 d    1 1.00
                  0.55                   1

8 0
 s    8 1.00
                 11720  0.00070964594651845
                  1759  0.0054672722921914
                 400.8   0.027823118610189
                 113.7    0.10474773971146
                 37.03    0.28292084635691
                 13.27    0.44849523869833
                 5.025    0.27081688521277
                 1.013    0.01545029160744
 s    8 1.00
                 11720  -0.00031444341168873
                  1759  -0.0024821376810179
                 400.8  -0.012316355381583
                 113.7  -0.050538917343672
                 37.03   -0.13938490331632
                 13.27   -0.32507749481778
                 5.025   -0.22984830758785
                 1.013     1.0953793467883
 s    1 1.00
                0.3023                   1
 p    3 1.00
                  17.7   0.062679166281506
                 3.854    0.33353656587936
                 1.046    0.74123964163973
 p    1 1.00
                0.2753                   1
 d    1 1.00
                 1.185                   1

9 0
 s    8 1.00
                  6665  0.00069158396281299
                  1000  0.0053257961529341
                   228   0.027060721042034
                 64.71    0.10165684614077
                 21.06     0.2745748236174
                 7.495    0.44829431892377
                 2.797    0.28490261071525
                0.5215   0.015194859206082
 s    8 1.00
                  6665  -0.00029326965268655
                  1000  -0.0023180354739745
                   228  -0.011499786038565
                 64.71  -0.046826727009787
                 21.06   -0.12846616875047
                 7.495   -0.30126627246289
                 2.797   -0.25563070233011
                0.5215      1.093793361012
 s    1 1.00
                0.1596                   1
 p    3 1.00
                 9.439   0.056979251590039
                 2.002    0.31320721150073
                0.5456    0.76037674173753
 p    1 1.00
                0.1517                   1
 d    1 1.00
                  0.55                   1

10 0
 s    3 1.00
                 13.01   0.033498726389998
                 1.962    0.23480080117413
                0.4446     0.8136829578829
 s    1 1.00
                 0.122                   1
 p    1 1.00
                 0.727                   1

11 0
 s    8 1.00
                  6665  0.00069158396281299
                  1000  0.0053257961529341
                   228   0.027060721042034
                 64.71    0.10165684614077
                 21.06     0.2745748236174
                 7.495    0.44829431892377
                 2.797    0.28490261071525
                0.5215   0.015194859206082
 s    8 1.00
                  6665  -0.00029326965268655
                  1000  -0.0023180354739745
                   228  -0.011499786038565
                 64.71  -0.046826727009787
                 21.06   -0.12846616875047
                 7.495   -0.30126627246289
                 2.797   -0.25563070233011
                0.5215      1.093793361012
 s    1 1.00
                0.1596                   1
 p    3 1.00
                 9.439   0.056979251590039
                 2.002    0.31320721150073
                0.5456    0.76037674173753
 p    1 1.00
                0.1517                   1
 d    1 1.00
                  0.55                   1

12 0
 s    8 1.00
                 11720  0.00070964594651845
                  1759  0.0054672722921914
                 400.8   0.027823118610189
                 113.7    0.10474773971146
                 37.03    0.28292084635691
                 13.27    0.44849523869833
                 5.025    0.27081688521277
                 1.013    0.01545029160744
 s    8 1.00
                 11720  -0.00031444341168873
                  1759  -0.0024821376810179
                 400.8  -0.012316355381583
                 113.7  -0.050538917343672
                 37.03   -0.13938490331632
                 13.27   -0.32507749481778
                 5.025   -0.22984830758785
                 1.013     1.0953793467883
 s    1 1.00
                0.3023                   1
 p    3 1.00
                  17.7   0.062679166281506
                 3.854    0.33353656587936
                 1.046    0.74123964163973
 p    1 1.00
                0.2753                   1
 d    1 1.00
                 1.185                   1

13 0
 s    3 1.00
                 13.01   0.033498726389998
                 1.962    0.23480080117413
                0.4446     0.8136829578829
 s    1 1.00
                 0.122                   1
 p    1 1.00
                 0.727                   1

14 0
 s    3 1.00
                 13.01   0.033498726389998
                 1.962    0.23480080117413
                0.4446     0.8136829578829
 s    1 1.00
                 0.122                   1
 p    1 1.00
                 0.727                   1

15 0
 s    3 1.00
                 13.01   0.033498726389998
                 1.962    0.23480080117413
                0.4446     0.8136829578829
 s    1 1.00
                 0.122                   1
 p    1 1.00
                 0.727                   1

16 0
 s    8 1.00
                 11720  0.00070964594651845
                  1759  0.0054672722921914
                 400.8   0.027823118610189
                 113.7    0.10474773971146
                 37.03    0.28292084635691
                 13.27    0.44849523869833
                 5.025    0.27081688521277
                 1.013    0.01545029160744
 s    8 1.00
                 11720  -0.00031444341168873
                  1759  -0.0024821376810179
                 400.8  -0.012316355381583
                 113.7  -0.050538917343672
                 37.03   -0.13938490331632
                 13.27   -0.32507749481778
                 5.025   -0.22984830758785
                 1.013     1.0953793467883
 s    1 1.00
                0.3023                   1
 p    3 1.00
                  17.7   0.062679166281506
                 3.854    0.33353656587936
                 1.046    0.74123964163973
 p    1 1.00
                0.2753                   1
 d    1 1.00
                 1.185                   1

17 0
 s    3 1.00
                 13.01   0.033498726389998
                 1.962    0.23480080117413
                0.4446     0.8136829578829
 s    1 1.00
                 0.122                   1
 p    1 1.00
                 0.727                   1

18 0
 s    3 1.00
                 13.01   0.033498726389998
                 1.962    0.23480080117413
                0.4446     0.8136829578829
 s    1 1.00
                 0.122                   1
 p    1 1.00
                 0.727                   1

19 0
 s    8 1.00
                 11720  0.00070964594651845
                  1759  0.0054672722921914
                 400.8   0.027823118610189
                 113.7    0.10474773971146
                 37.03    0.28292084635691
                 13.27    0.44849523869833
                 5.025    0.27081688521277
                 1.013    0.01545029160744
 s    8 1.00
                 11720  -0.00031444341168873
                  1759  -0.0024821376810179
                 400.8  -0.012316355381583
                 113.7  -0.050538917343672
                 37.03   -0.13938490331632
                 13.27   -0.32507749481778
                 5.025   -0.22984830758785
                 1.013     1.0953793467883
 s    1 1.00
                0.3023                   1
 p    3 1.00
                  17.7   0.062679166281506
                 3.854    0.33353656587936
                 1.046    0.74123964163973
 p    1 1.00
                0.2753                   1
 d    1 1.00
                 1.185                   1

20 0
 s    3 1.00
                 13.01   0.033498726389998
                 1.962    0.23480080117413
                0.4446     0.8136829578829
 s    1 1.00
                 0.122                   1
 p    1 1.00
                 0.727                   1

21 0
 s    3 1.00
                 13.01   0.033498726389998
                 1.962    0.23480080117413
                0.4446     0.8136829578829
 s    1 1.00
                 0.122                   1
 p    1 1.00
                 0.727                   1

22 0
 s    3 1.00
                 13.01   0.033498726389998
                 1.962    0.23480080117413
                0.4446     0.8136829578829
 s    1 1.00
                 0.122                   1
 p    1 1.00
                 0.727                   1

23 0
 s    3 1.00
                 13.01   0.033498726389998
                 1.962    0.23480080117413
                0.4446     0.8136829578829
 s    1 1.00
                 0.122                   1
 p    1 1.00
                 0.727                   1

24 0
 s    3 1.00
                 13.01   0.033498726389998
                 1.962    0.23480080117413
                0.4446     0.8136829578829
 s    1 1.00
                 0.122                   1
 p    1 1.00
                 0.727                   1

[5d]
[7f]
[9g]

[MO]
 Sym= A
 Ene=     -20.5989454
 Spin= Alpha
 Occup=    2.00000
   1    -0.00025316330252859
   2    -0.00044857316047434
   3    -0.00063901312461952
   4    0.00014472702653927
   5    -3.2096637327126e-05
   6    -2.2585324900902e-05
   7    -0.00035168004882468
   8    0.00026581548404405
   9    -0.0013029785779266
  10    -4.1531338047996e-05
  11    0.00010462257335708
  12    3.6909092575548e-06
  13    0.00012829599110978
  14    6.8234719379704e-05
  15    -1.673656836139e-05
  16    -2.1056254432953e-05
  17    0.00031576946463619
  18    -2.384052292271e-05
  19    -7.4199639737348e-06
  20    -2.7036874790082e-05
  21    9.7574206779168e-05
  22    8.4775126029946e-05
  23    0.00020237067724093
  24    3.8389108587705e-07
  25    4.5088803193999e-07
  26    9.7407854830411e-07
  27    1.5146367480938e-05
  28    -1.4996471005289e-06
  29    -0.00047373680718472
  30    -0.0009982467352288
  31    0.0094546911480404
  32    -3.4582910416008e-05
  33    3.2762260020805e-05
  34    4.3276949250255e-05
  35    -0.0023368927625968
  36    -0.0021950692658794
  37    -0.0037838678063219
  38    6.2682205446576e-05
  39    0.00036156923312604
  40    -2.6906390919358e-08
  41    0.00032405434875424
  42    4.407725144593e-05
  43    5.7512951545967e-05
  44    0.00016281924686249
  45    -0.00033849567545398
  46    -0.00017079342429617
  47    3.4387304423271e-05
  48    -5.513662937553e-05
  49    0.00023889862562911
  50    0.00027341032522343
  51    0.00034371649434823
  52    -2.6017592790211e-05
  53    3.407036863888e-07
  54    2.3852774597843e-05
  55    -1.6119433455117e-05
  56    7.550414826727e-06
  57    -0.00094151308654061
  58    -0.0011098602027668
  59     0.010588597019876
  60    0.00016100519351595
  61    0.00065850261327526
  62    -0.00055785201885709
  63    -0.017301875720429
  64    -0.0055743941323188
  65    0.0041338438881685
  66    0.00037816920365794
  67    -0.00077860758895011
  68    0.00011987312989556
  69    -0.00051108336373119
  70    -0.00025369243326778
  71    -0.00060399879854814
  72    0.0039104952314819
  73    0.00037586498137771
  74    0.00015248698875529
  75    9.1369781484414e-05
  76    0.0018802384376718
  77    0.0020329694769316
  78    -0.034051547172646
  79    0.0031646754527692
  80    0.0020424028769413
  81    0.00053427719938794
  82    0.0077583581887461
  83     0.021615316071997
  84    0.0048955661288121
  85    0.00010832554479496
  86    0.00039823801149036
  87    -0.00011626234178744
  88    -0.00026780369089367
  89    -0.00050936428995786
  90    -0.0005077497187699
  91    -0.00067755365620302
  92    0.0061230423357378
  93    -0.00081482253637818
  94    -0.00066963833566462
  95    -0.00029982210008835
  96    -0.0019463154565571
  97    -0.0026468462294164
  98    -0.0027645509683459
  99    3.2931103194504e-05
 100    -2.6627758105889e-05
 101    -8.1539067159831e-06
 102    -9.1280375714094e-05
 103    0.0001200775677671
 104    0.00010538621886929
 105    0.0085081987980256
 106     0.034309527989142
 107    -0.0087945342696118
 108    -0.0019461442707857
 109    -0.010982523261654
 110     0.025973174590648
 111    -0.0085682587376419
 112    -0.012386236668528
 113    -0.00049521854621057
 114    0.0012534000859042
 115    0.0006475494075909
 116    -0.00042218069524067
 117    -0.00023948171818691
 118    0.0050008918289394
 119    0.0088668603174879
 120    -0.00027631895361706
 121    -0.00045441501437292
 122    -0.00087468976709492
 123    0.0016769236230665
 124     0.026652760619817
 125     0.044578558699779
 126    -0.041896920352077
 127    -0.0062617771663641
 128    -0.0082429104409346
 129    -0.057875515900709
 130    0.0030846229589857
 131    -0.0090306292469092
 132    0.0035386276282765
 133    0.0090642284441104
 134    0.00083550961775981
 135     0.010500021421325
 136    -0.019229515982255
 137    0.0066090542873178
 138     -0.22284809014297
 139     -0.15016019224348
 140     0.078262019469041
 141      0.38667614855864
 142     -0.14863744007676
 143     0.019563106588314
 144      0.17947779046597
 145    -0.072145995940133
 146    0.0026667575602778
 147    -0.00097928291670935
 148     0.011209639522739
 149     0.014282218087189
 150     0.004258246613192
 151    -0.00017679569803738
 152    -0.00094076444476009
 153    1.5106916272442e-05
 154    3.160183339779e-05
 155    -3.6667694421106e-05
 156    -9.4970495167714e-05
 157    0.00078782318550896
 158    4.4331087593363e-06
 159    -5.4825795128831e-05
 160    7.842629357935e-05
 161    -6.3216928335156e-07
 162    0.00046201903938714
 163    1.8612092675596e-05
 164    -3.1005341095998e-05
 165    -0.00010875078208666
 166    0.00055569199567666
 167    0.00088691832764023
 168    -0.0056711149274353
 169    -0.00024765303225938
 170    -7.4214159798795e-05
 171    0.0003718366401814
 172    0.0018283012287169
 173    -0.0028420386194048
 174    0.00037303400733248
 175    5.6473052611466e-05
 176    3.9177730017807e-05
 177    -5.8204345683438e-05
 178     7.75779809326e-05
 179    4.4561212334121e-05
 180    0.00098014920672052
 181    -0.0073668163063278
 182    7.0702028175818e-05
 183    -0.000107154595694
 184    7.2045732494158e-05
 185    -0.00012505147530009
 186    -0.0006894201124876
 187    4.8004054150892e-05
 188    -0.00028616203911255
 189    0.00016205674238915
 190    0.0013500546084911
 191    0.0032897184257807
 192    -0.006597771445827
 193    -0.0052300108189175
 194    -0.00021609178883629
 195    -0.0039657639559978
 196    -0.0058095202819789
 197    -0.0034531496021937
 198    0.0013246982467599
 199    4.2137332791957e-05
 200    -0.00057700838491056
 201    -0.00025434184810691
 202    -0.00065210106816643
 203    2.0114236876573e-05
 204     0.010617515109993
 205     0.008748379657403
 206    -0.00015606359254877
 207    -0.00073913863659287
 208    -0.00020416915233056
 209      -0.0290047919303
 210    -0.035081460042265
 211    0.0023398758244874
 212    -0.0015133037207423
 213    0.00051627063155469
 214      -0.4168741016647
 215    -0.071404139517153
 216    -0.012144740727542
 217    -0.055788928290632
 218      0.02204045311132
 219    5.8037529078374e-05
 220    -0.00057937742661097
 221    -6.09585629482e-05
 222    6.6039946258499e-05
 223    5.3648495708223e-05
 224    0.00043761790827528
 225    -0.0019809182774056
 226    -0.001228357508707
 227    1.203998468493e-05
 228    -0.00038960201675688
