[Molden Format]
made by pyscf v[2.1.0]
[Atoms] (AU)
C   1   6     5.80518952178463     0.50358555603085    -2.01447450495210
O   2   8     7.59006230260208    -0.90749372816926    -2.10619425213399
C   3   6     4.06257668629083     0.88716594424731     0.25526042545400
O   4   8     4.92221121062936    -0.52198770903186     2.35899047472156
C   5   6     1.33654470639501     0.10405776904918    -0.51168492220073
H   6   1     0.89689425433657     0.93209418285884    -2.36575758397362
C   7   6    -0.64932879366180     1.09909683939116     1.38333243551311
O   8   8    -0.00969996419739     0.43834276158024     3.94911375031970
C   9   6    -3.35971006179398     0.18432766564233     0.79610193203064
H   10   1    -4.66165577257433     1.18213140530455     2.06285149374097
C   11   6    -4.19715353225174     0.65517938574345    -1.93554631390739
O   12   8    -6.81065988033421     0.10526341431665    -2.27483908066855
H   13   1     5.22581272007586     1.68491382773245    -3.67455355195552
H   14   1     4.03225036144381     2.94522509253638     0.63780524375420
H   15   1     3.63813663980902    -0.25163782047321     3.65830001755813
O   16   8     1.20169573987217    -2.59733407190845    -0.80186748643669
H   17   1    -0.61314809728088     3.17348700084872     1.28243995772258
H   18   1    -0.91242591335437    -1.12422074821725     4.30347519319814
O   19   8    -3.63012231131474    -2.45370354808476     1.43919651920751
H   20   1    -3.01998643747642    -0.49263081368674    -3.22017268475610
H   21   1    -3.94341055687576     2.65625195302014    -2.42398382532372
H   22   1    -7.07185971499772    -1.58002646891459    -1.60535635788826
H   23   1     2.47305434360030    -3.30624782000391     0.32275766317121
H   24   1    -2.30526934045242    -3.31584195953833     0.48480734753104
[GTO]
1 0
 s    8 1.00
                  6665  0.00069158396281299
                  1000  0.0053257961529341
                   228   0.027060721042034
                 64.71    0.10165684614077
                 21.06     0.2745748236174
                 7.495    0.44829431892377
                 2.797    0.28490261071525
                0.5215   0.015194859206082
 s    8 1.00
                  6665  -0.00029326965268655
                  1000  -0.0023180354739745
                   228  -0.011499786038565
                 64.71  -0.046826727009787
                 21.06   -0.12846616875047
                 7.495   -0.30126627246289
                 2.797   -0.25563070233011
                0.5215      1.093793361012
 s    1 1.00
                0.1596                   1
 p    3 1.00
                 9.439   0.056979251590039
                 2.002    0.31320721150073
                0.5456    0.76037674173753
 p    1 1.00
                0.1517                   1
 d    1 1.00
                  0.55                   1

2 0
 s    8 1.00
                 11720  0.00070964594651845
                  1759  0.0054672722921914
                 400.8   0.027823118610189
                 113.7    0.10474773971146
                 37.03    0.28292084635691
                 13.27    0.44849523869833
                 5.025    0.27081688521277
                 1.013    0.01545029160744
 s    8 1.00
                 11720  -0.00031444341168873
                  1759  -0.0024821376810179
                 400.8  -0.012316355381583
                 113.7  -0.050538917343672
                 37.03   -0.13938490331632
                 13.27   -0.32507749481778
                 5.025   -0.22984830758785
                 1.013     1.0953793467883
 s    1 1.00
                0.3023                   1
 p    3 1.00
                  17.7   0.062679166281506
                 3.854    0.33353656587936
                 1.046    0.74123964163973
 p    1 1.00
                0.2753                   1
 d    1 1.00
                 1.185                   1

3 0
 s    8 1.00
                  6665  0.00069158396281299
                  1000  0.0053257961529341
                   228   0.027060721042034
                 64.71    0.10165684614077
                 21.06     0.2745748236174
                 7.495    0.44829431892377
                 2.797    0.28490261071525
                0.5215   0.015194859206082
 s    8 1.00
                  6665  -0.00029326965268655
                  1000  -0.0023180354739745
                   228  -0.011499786038565
                 64.71  -0.046826727009787
                 21.06   -0.12846616875047
                 7.495   -0.30126627246289
                 2.797   -0.25563070233011
                0.5215      1.093793361012
 s    1 1.00
                0.1596                   1
 p    3 1.00
                 9.439   0.056979251590039
                 2.002    0.31320721150073
                0.5456    0.76037674173753
 p    1 1.00
                0.1517                   1
 d    1 1.00
                  0.55                   1

4 0
 s    8 1.00
                 11720  0.00070964594651845
                  1759  0.0054672722921914
                 400.8   0.027823118610189
                 113.7    0.10474773971146
                 37.03    0.28292084635691
                 13.27    0.44849523869833
                 5.025    0.27081688521277
                 1.013    0.01545029160744
 s    8 1.00
                 11720  -0.00031444341168873
                  1759  -0.0024821376810179
                 400.8  -0.012316355381583
                 113.7  -0.050538917343672
                 37.03   -0.13938490331632
                 13.27   -0.32507749481778
                 5.025   -0.22984830758785
                 1.013     1.0953793467883
 s    1 1.00
                0.3023                   1
 p    3 1.00
                  17.7   0.062679166281506
                 3.854    0.33353656587936
                 1.046    0.74123964163973
 p    1 1.00
                0.2753                   1
 d    1 1.00
                 1.185                   1

5 0
 s    8 1.00
                  6665  0.00069158396281299
                  1000  0.0053257961529341
                   228   0.027060721042034
                 64.71    0.10165684614077
                 21.06     0.2745748236174
                 7.495    0.44829431892377
                 2.797    0.28490261071525
                0.5215   0.015194859206082
 s    8 1.00
                  6665  -0.00029326965268655
                  1000  -0.0023180354739745
                   228  -0.011499786038565
                 64.71  -0.046826727009787
                 21.06   -0.12846616875047
                 7.495   -0.30126627246289
                 2.797   -0.25563070233011
                0.5215      1.093793361012
 s    1 1.00
                0.1596                   1
 p    3 1.00
                 9.439   0.056979251590039
                 2.002    0.31320721150073
                0.5456    0.76037674173753
 p    1 1.00
                0.1517                   1
 d    1 1.00
                  0.55                   1

6 0
 s    3 1.00
                 13.01   0.033498726389998
                 1.962    0.23480080117413
                0.4446     0.8136829578829
 s    1 1.00
                 0.122                   1
 p    1 1.00
                 0.727                   1

7 0
 s    8 1.00
                  6665  0.00069158396281299
                  1000  0.0053257961529341
                   228   0.027060721042034
                 64.71    0.10165684614077
                 21.06     0.2745748236174
                 7.495    0.44829431892377
                 2.797    0.28490261071525
                0.5215   0.015194859206082
 s    8 1.00
                  6665  -0.00029326965268655
                  1000  -0.0023180354739745
                   228  -0.011499786038565
                 64.71  -0.046826727009787
                 21.06   -0.12846616875047
                 7.495   -0.30126627246289
                 2.797   -0.25563070233011
                0.5215      1.093793361012
 s    1 1.00
                0.1596                   1
 p    3 1.00
                 9.439   0.056979251590039
                 2.002    0.31320721150073
                0.5456    0.76037674173753
 p    1 1.00
                0.1517                   1
 d    1 1.00
                  0.55                   1

8 0
 s    8 1.00
                 11720  0.00070964594651845
                  1759  0.0054672722921914
                 400.8   0.027823118610189
                 113.7    0.10474773971146
                 37.03    0.28292084635691
                 13.27    0.44849523869833
                 5.025    0.27081688521277
                 1.013    0.01545029160744
 s    8 1.00
                 11720  -0.00031444341168873
                  1759  -0.0024821376810179
                 400.8  -0.012316355381583
                 113.7  -0.050538917343672
                 37.03   -0.13938490331632
                 13.27   -0.32507749481778
                 5.025   -0.22984830758785
                 1.013     1.0953793467883
 s    1 1.00
                0.3023                   1
 p    3 1.00
                  17.7   0.062679166281506
                 3.854    0.33353656587936
                 1.046    0.74123964163973
 p    1 1.00
                0.2753                   1
 d    1 1.00
                 1.185                   1

9 0
 s    8 1.00
                  6665  0.00069158396281299
                  1000  0.0053257961529341
                   228   0.027060721042034
                 64.71    0.10165684614077
                 21.06     0.2745748236174
                 7.495    0.44829431892377
                 2.797    0.28490261071525
                0.5215   0.015194859206082
 s    8 1.00
                  6665  -0.00029326965268655
                  1000  -0.0023180354739745
                   228  -0.011499786038565
                 64.71  -0.046826727009787
                 21.06   -0.12846616875047
                 7.495   -0.30126627246289
                 2.797   -0.25563070233011
                0.5215      1.093793361012
 s    1 1.00
                0.1596                   1
 p    3 1.00
                 9.439   0.056979251590039
                 2.002    0.31320721150073
                0.5456    0.76037674173753
 p    1 1.00
                0.1517                   1
 d    1 1.00
                  0.55                   1

10 0
 s    3 1.00
                 13.01   0.033498726389998
                 1.962    0.23480080117413
                0.4446     0.8136829578829
 s    1 1.00
                 0.122                   1
 p    1 1.00
                 0.727                   1

11 0
 s    8 1.00
                  6665  0.00069158396281299
                  1000  0.0053257961529341
                   228   0.027060721042034
                 64.71    0.10165684614077
                 21.06     0.2745748236174
                 7.495    0.44829431892377
                 2.797    0.28490261071525
                0.5215   0.015194859206082
 s    8 1.00
                  6665  -0.00029326965268655
                  1000  -0.0023180354739745
                   228  -0.011499786038565
                 64.71  -0.046826727009787
                 21.06   -0.12846616875047
                 7.495   -0.30126627246289
                 2.797   -0.25563070233011
                0.5215      1.093793361012
 s    1 1.00
                0.1596                   1
 p    3 1.00
                 9.439   0.056979251590039
                 2.002    0.31320721150073
                0.5456    0.76037674173753
 p    1 1.00
                0.1517                   1
 d    1 1.00
                  0.55                   1

12 0
 s    8 1.00
                 11720  0.00070964594651845
                  1759  0.0054672722921914
                 400.8   0.027823118610189
                 113.7    0.10474773971146
                 37.03    0.28292084635691
                 13.27    0.44849523869833
                 5.025    0.27081688521277
                 1.013    0.01545029160744
 s    8 1.00
                 11720  -0.00031444341168873
                  1759  -0.0024821376810179
                 400.8  -0.012316355381583
                 113.7  -0.050538917343672
                 37.03   -0.13938490331632
                 13.27   -0.32507749481778
                 5.025   -0.22984830758785
                 1.013     1.0953793467883
 s    1 1.00
                0.3023                   1
 p    3 1.00
                  17.7   0.062679166281506
                 3.854    0.33353656587936
                 1.046    0.74123964163973
 p    1 1.00
                0.2753                   1
 d    1 1.00
                 1.185                   1

13 0
 s    3 1.00
                 13.01   0.033498726389998
                 1.962    0.23480080117413
                0.4446     0.8136829578829
 s    1 1.00
                 0.122                   1
 p    1 1.00
                 0.727                   1

14 0
 s    3 1.00
                 13.01   0.033498726389998
                 1.962    0.23480080117413
                0.4446     0.8136829578829
 s    1 1.00
                 0.122                   1
 p    1 1.00
                 0.727                   1

15 0
 s    3 1.00
                 13.01   0.033498726389998
                 1.962    0.23480080117413
                0.4446     0.8136829578829
 s    1 1.00
                 0.122                   1
 p    1 1.00
                 0.727                   1

16 0
 s    8 1.00
                 11720  0.00070964594651845
                  1759  0.0054672722921914
                 400.8   0.027823118610189
                 113.7    0.10474773971146
                 37.03    0.28292084635691
                 13.27    0.44849523869833
                 5.025    0.27081688521277
                 1.013    0.01545029160744
 s    8 1.00
                 11720  -0.00031444341168873
                  1759  -0.0024821376810179
                 400.8  -0.012316355381583
                 113.7  -0.050538917343672
                 37.03   -0.13938490331632
                 13.27   -0.32507749481778
                 5.025   -0.22984830758785
                 1.013     1.0953793467883
 s    1 1.00
                0.3023                   1
 p    3 1.00
                  17.7   0.062679166281506
                 3.854    0.33353656587936
                 1.046    0.74123964163973
 p    1 1.00
                0.2753                   1
 d    1 1.00
                 1.185                   1

17 0
 s    3 1.00
                 13.01   0.033498726389998
                 1.962    0.23480080117413
                0.4446     0.8136829578829
 s    1 1.00
                 0.122                   1
 p    1 1.00
                 0.727                   1

18 0
 s    3 1.00
                 13.01   0.033498726389998
                 1.962    0.23480080117413
                0.4446     0.8136829578829
 s    1 1.00
                 0.122                   1
 p    1 1.00
                 0.727                   1

19 0
 s    8 1.00
                 11720  0.00070964594651845
                  1759  0.0054672722921914
                 400.8   0.027823118610189
                 113.7    0.10474773971146
                 37.03    0.28292084635691
                 13.27    0.44849523869833
                 5.025    0.27081688521277
                 1.013    0.01545029160744
 s    8 1.00
                 11720  -0.00031444341168873
                  1759  -0.0024821376810179
                 400.8  -0.012316355381583
                 113.7  -0.050538917343672
                 37.03   -0.13938490331632
                 13.27   -0.32507749481778
                 5.025   -0.22984830758785
                 1.013     1.0953793467883
 s    1 1.00
                0.3023                   1
 p    3 1.00
                  17.7   0.062679166281506
                 3.854    0.33353656587936
                 1.046    0.74123964163973
 p    1 1.00
                0.2753                   1
 d    1 1.00
                 1.185                   1

20 0
 s    3 1.00
                 13.01   0.033498726389998
                 1.962    0.23480080117413
                0.4446     0.8136829578829
 s    1 1.00
                 0.122                   1
 p    1 1.00
                 0.727                   1

21 0
 s    3 1.00
                 13.01   0.033498726389998
                 1.962    0.23480080117413
                0.4446     0.8136829578829
 s    1 1.00
                 0.122                   1
 p    1 1.00
                 0.727                   1

22 0
 s    3 1.00
                 13.01   0.033498726389998
                 1.962    0.23480080117413
                0.4446     0.8136829578829
 s    1 1.00
                 0.122                   1
 p    1 1.00
                 0.727                   1

23 0
 s    3 1.00
                 13.01   0.033498726389998
                 1.962    0.23480080117413
                0.4446     0.8136829578829
 s    1 1.00
                 0.122                   1
 p    1 1.00
                 0.727                   1

24 0
 s    3 1.00
                 13.01   0.033498726389998
                 1.962    0.23480080117413
                0.4446     0.8136829578829
 s    1 1.00
                 0.122                   1
 p    1 1.00
                 0.727                   1

[5d]
[7f]
[9g]

[MO]
 Sym= A
 Ene=     -20.5989454
 Spin= Alpha
 Occup=    2.00000
   1    0.0010359472727494
   2    0.00049436493098318
   3    0.0032455571483887
   4      0.19578890688065
   5      0.24906955851651
   6      0.10919046175431
   7      0.13100347090342
   8      0.16008587826684
   9     0.069609983117762
  10    -0.00023014590504045
  11     0.013072000432889
  12    -0.012588200978389
  13     0.051022134821974
  14     0.011307944086707
  15    0.00027982308291501
  16    -0.0031420958773211
  17    -0.0039633882129247
  18      0.29690094452354
  19      0.35765763026071
  20      0.15903315726689
  21      0.20502649469107
  22      0.24840728514466
  23      0.11035498376128
  24    0.00079852831791561
  25    -0.0070146642743848
  26    0.0068321893208636
  27    -0.027955872937738
  28    -0.0059476949571942
  29    0.0011182640761416
  30    0.0012467118234595
  31    -0.0094040038095506
  32    -0.00098225050686806
  33    -0.0046040210964843
  34    -0.0021672243111803
  35    -0.0072694048842615
  36    -0.0091029177829062
  37    0.0012637442904729
  38    -0.0063012128969038
  39    -0.0030203899060423
  40    -0.0096232410646516
  41    0.0085409355875331
  42    0.0060305441915655
  43    -7.0256397160629e-05
  44    -0.00053922867949336
  45    -0.0013673333380469
  46    -0.0017297074721763
  47    -0.0022702997408927
  48    0.00014864018127364
  49    0.00054541635958756
  50    -0.00076775414496668
  51    -0.00073533181173077
  52    -0.00013945799270065
  53    -0.00018410402156306
  54    -0.00038512833581201
  55    0.00055115689152992
  56    0.00034475944319404
  57    -0.00072520028368399
  58     0.011266004456009
  59     0.032076470046933
  60     0.024071123651768
  61    0.0050285739091832
  62     0.001659498076423
  63     0.035902314973448
  64     -0.00280638452569
  65    -0.0075713771575148
  66    -0.00097724016898008
  67    0.00081305510596645
  68    -0.00088570522667903
  69    0.00014542061554154
  70    0.00019776818306869
  71    0.0031211699414092
  72    0.0047061942236301
  73    0.00073289301055042
  74    9.7584415265862e-05
  75    0.0010934381510786
  76    -0.00026804374553517
  77    -0.0041112527427042
  78    0.0045626866784311
  79    -0.0060601978598604
  80    0.0042808753404689
  81    0.0055693092719767
  82    -0.0025411117783642
  83    0.00017696484264256
  84    -0.00081021597452146
  85    -0.0006348426328258
  86    -5.4641071821211e-05
  87    -0.00043746866943648
  88    0.0011319884726919
  89    7.3065478892517e-05
  90    -4.781320403919e-05
  91    -6.546440601941e-05
  92    0.00035535538952328
  93    0.00046462226753506
  94    -0.00019596621003007
  95    -5.6967210943454e-05
  96    0.00030831512227464
  97    -0.0004279709449778
  98    -0.0008373117303297
  99    -0.00010705672208332
 100    9.6477344544615e-05
 101    -6.3025891369956e-05
 102    3.7689970931091e-05
 103    -0.00010423292561861
 104    1.7138646116543e-05
 105    0.0012776196555381
 106    0.0013155659503449
 107    0.0029035644639733
 108    0.00070984402746188
 109    0.00012503440020674
 110    0.0025178586606941
 111    0.0016800807317517
 112    -0.0011933381676637
 113    0.00020822474299057
 114    0.00032171360959299
 115    1.9037684811791e-05
 116    -0.00026522128436549
 117    0.00011455036685875
 118    -0.0017594010498749
 119    -0.0015727620612507
 120    0.00013085981995112
 121    9.7587318454134e-06
 122    9.5414528131002e-05
 123    -0.00019142598712971
 124    5.3370920723988e-05
 125    0.0020957989550182
 126    0.00037648446260337
 127    -0.00032037905014645
 128    0.00017586433030341
 129    0.00065781746922988
 130    -0.0011583047862741
 131    -0.00091496594647153
 132    -6.0441667519545e-05
 133    3.1761874448739e-05
 134    5.8356100959493e-05
 135    6.7797563366831e-05
 136    -2.5473139757212e-05
 137    1.4266592852588e-05
 138    7.9643318646168e-05
 139    4.7776509268937e-05
 140    -7.4526595608396e-05
 141    0.0001077852439467
 142    0.0002407520956831
 143    -0.00022726752419171
 144    0.00027361448556841
 145    0.0003616797275084
 146    2.4096562838828e-06
 147    3.7962592548831e-06
 148    -1.4149712007784e-06
 149    -1.5826532364137e-06
 150    -6.2303273006091e-06
 151    0.00046382446055984
 152    -0.00090576110986118
 153       0.0046472411533
 154    0.0065019462321619
 155    0.0026376637392408
 156    -0.025155897312639
 157    -0.033449657641385
 158    -0.00092920716301958
 159    0.0006086078645586
 160    0.0013541154640459
 161    0.0014276017611494
 162    0.0031866781091846
 163    -0.00017228699814461
 164    -0.00072238690046777
 165    -0.00045152492228262
 166    6.0827998640963e-05
 167    0.0014628479770127
 168    0.0017531433753129
 169    0.0042109770535879
 170    -0.0021402405105861
 171    -0.0022060918944311
 172    0.0019754262929577
 173    -0.0065572225047115
 174    -7.9371368515242e-06
 175    -4.2758578043395e-05
 176    0.0005827770123996
 177    8.1031706371306e-05
 178    -0.00023957696807899
 179    0.00024827519770203
 180    0.00040923237839762
 181    0.0017026947677677
 182    -0.00022695407023309
 183    -0.00018638414227059
 184    0.00018584695189251
 185    -0.00051627880466538
 186    0.00049634497584186
 187    5.4606621058922e-05
 188    1.0514972011131e-05
 189    5.4388951442441e-05
 190    5.7291536119286e-05
 191    0.00033955048858864
 192    -3.5051390414323e-05
 193    0.0004414882614776
 194    0.00017696987723023
 195    -0.0002775340523738
 196    -0.00028186923305135
 197     0.001087407874499
 198    -2.6731212300496e-05
 199    7.6835232633467e-06
 200    4.2801054657805e-05
 201    -3.762411671875e-05
 202    -7.1076202269643e-05
 203    0.00010237134033713
 204    9.1493191503364e-05
 205    -0.0020679532921268
 206    7.7123095277625e-05
 207    -6.433587835383e-05
 208    -5.3532072464861e-05
 209    -0.0001086437728358
 210    -0.00059314092342408
 211    -5.337676330821e-05
 212    4.5686954376995e-05
 213    2.5652426377583e-05
 214    4.5688027476414e-05
 215    -9.0579688677823e-05
 216    1.3168087657215e-05
 217    1.1637957724765e-05
 218    1.3429050158808e-06
 219    0.00041252455020528
 220    -0.013896954299839
 221    -0.00022983295843229
 222    -0.00035462799149537
 223    0.00077644932699452
 224    -0.00027996676457724
 225    0.0028310922359275
 226    -0.00025498240835019
 227    0.00014017375895352
 228    0.00014246066618644
