[Molden Format]
made by pyscf v[2.1.0]
[Atoms] (AU)
C   1   6     5.80518952178463     0.50358555603085    -2.01447450495210
O   2   8     7.59006230260208    -0.90749372816926    -2.10619425213399
C   3   6     4.06257668629083     0.88716594424731     0.25526042545400
O   4   8     4.92221121062936    -0.52198770903186     2.35899047472156
C   5   6     1.33654470639501     0.10405776904918    -0.51168492220073
H   6   1     0.89689425433657     0.93209418285884    -2.36575758397362
C   7   6    -0.64932879366180     1.09909683939116     1.38333243551311
O   8   8    -0.00969996419739     0.43834276158024     3.94911375031970
C   9   6    -3.35971006179398     0.18432766564233     0.79610193203064
H   10   1    -4.66165577257433     1.18213140530455     2.06285149374097
C   11   6    -4.19715353225174     0.65517938574345    -1.93554631390739
O   12   8    -6.81065988033421     0.10526341431665    -2.27483908066855
H   13   1     5.22581272007586     1.68491382773245    -3.67455355195552
H   14   1     4.03225036144381     2.94522509253638     0.63780524375420
H   15   1     3.63813663980902    -0.25163782047321     3.65830001755813
O   16   8     1.20169573987217    -2.59733407190845    -0.80186748643669
H   17   1    -0.61314809728088     3.17348700084872     1.28243995772258
H   18   1    -0.91242591335437    -1.12422074821725     4.30347519319814
O   19   8    -3.63012231131474    -2.45370354808476     1.43919651920751
H   20   1    -3.01998643747642    -0.49263081368674    -3.22017268475610
H   21   1    -3.94341055687576     2.65625195302014    -2.42398382532372
H   22   1    -7.07185971499772    -1.58002646891459    -1.60535635788826
H   23   1     2.47305434360030    -3.30624782000391     0.32275766317121
H   24   1    -2.30526934045242    -3.31584195953833     0.48480734753104
[GTO]
1 0
 s    8 1.00
                  6665  0.00069158396281299
                  1000  0.0053257961529341
                   228   0.027060721042034
                 64.71    0.10165684614077
                 21.06     0.2745748236174
                 7.495    0.44829431892377
                 2.797    0.28490261071525
                0.5215   0.015194859206082
 s    8 1.00
                  6665  -0.00029326965268655
                  1000  -0.0023180354739745
                   228  -0.011499786038565
                 64.71  -0.046826727009787
                 21.06   -0.12846616875047
                 7.495   -0.30126627246289
                 2.797   -0.25563070233011
                0.5215      1.093793361012
 s    1 1.00
                0.1596                   1
 p    3 1.00
                 9.439   0.056979251590039
                 2.002    0.31320721150073
                0.5456    0.76037674173753
 p    1 1.00
                0.1517                   1
 d    1 1.00
                  0.55                   1

2 0
 s    8 1.00
                 11720  0.00070964594651845
                  1759  0.0054672722921914
                 400.8   0.027823118610189
                 113.7    0.10474773971146
                 37.03    0.28292084635691
                 13.27    0.44849523869833
                 5.025    0.27081688521277
                 1.013    0.01545029160744
 s    8 1.00
                 11720  -0.00031444341168873
                  1759  -0.0024821376810179
                 400.8  -0.012316355381583
                 113.7  -0.050538917343672
                 37.03   -0.13938490331632
                 13.27   -0.32507749481778
                 5.025   -0.22984830758785
                 1.013     1.0953793467883
 s    1 1.00
                0.3023                   1
 p    3 1.00
                  17.7   0.062679166281506
                 3.854    0.33353656587936
                 1.046    0.74123964163973
 p    1 1.00
                0.2753                   1
 d    1 1.00
                 1.185                   1

3 0
 s    8 1.00
                  6665  0.00069158396281299
                  1000  0.0053257961529341
                   228   0.027060721042034
                 64.71    0.10165684614077
                 21.06     0.2745748236174
                 7.495    0.44829431892377
                 2.797    0.28490261071525
                0.5215   0.015194859206082
 s    8 1.00
                  6665  -0.00029326965268655
                  1000  -0.0023180354739745
                   228  -0.011499786038565
                 64.71  -0.046826727009787
                 21.06   -0.12846616875047
                 7.495   -0.30126627246289
                 2.797   -0.25563070233011
                0.5215      1.093793361012
 s    1 1.00
                0.1596                   1
 p    3 1.00
                 9.439   0.056979251590039
                 2.002    0.31320721150073
                0.5456    0.76037674173753
 p    1 1.00
                0.1517                   1
 d    1 1.00
                  0.55                   1

4 0
 s    8 1.00
                 11720  0.00070964594651845
                  1759  0.0054672722921914
                 400.8   0.027823118610189
                 113.7    0.10474773971146
                 37.03    0.28292084635691
                 13.27    0.44849523869833
                 5.025    0.27081688521277
                 1.013    0.01545029160744
 s    8 1.00
                 11720  -0.00031444341168873
                  1759  -0.0024821376810179
                 400.8  -0.012316355381583
                 113.7  -0.050538917343672
                 37.03   -0.13938490331632
                 13.27   -0.32507749481778
                 5.025   -0.22984830758785
                 1.013     1.0953793467883
 s    1 1.00
                0.3023                   1
 p    3 1.00
                  17.7   0.062679166281506
                 3.854    0.33353656587936
                 1.046    0.74123964163973
 p    1 1.00
                0.2753                   1
 d    1 1.00
                 1.185                   1

5 0
 s    8 1.00
                  6665  0.00069158396281299
                  1000  0.0053257961529341
                   228   0.027060721042034
                 64.71    0.10165684614077
                 21.06     0.2745748236174
                 7.495    0.44829431892377
                 2.797    0.28490261071525
                0.5215   0.015194859206082
 s    8 1.00
                  6665  -0.00029326965268655
                  1000  -0.0023180354739745
                   228  -0.011499786038565
                 64.71  -0.046826727009787
                 21.06   -0.12846616875047
                 7.495   -0.30126627246289
                 2.797   -0.25563070233011
                0.5215      1.093793361012
 s    1 1.00
                0.1596                   1
 p    3 1.00
                 9.439   0.056979251590039
                 2.002    0.31320721150073
                0.5456    0.76037674173753
 p    1 1.00
                0.1517                   1
 d    1 1.00
                  0.55                   1

6 0
 s    3 1.00
                 13.01   0.033498726389998
                 1.962    0.23480080117413
                0.4446     0.8136829578829
 s    1 1.00
                 0.122                   1
 p    1 1.00
                 0.727                   1

7 0
 s    8 1.00
                  6665  0.00069158396281299
                  1000  0.0053257961529341
                   228   0.027060721042034
                 64.71    0.10165684614077
                 21.06     0.2745748236174
                 7.495    0.44829431892377
                 2.797    0.28490261071525
                0.5215   0.015194859206082
 s    8 1.00
                  6665  -0.00029326965268655
                  1000  -0.0023180354739745
                   228  -0.011499786038565
                 64.71  -0.046826727009787
                 21.06   -0.12846616875047
                 7.495   -0.30126627246289
                 2.797   -0.25563070233011
                0.5215      1.093793361012
 s    1 1.00
                0.1596                   1
 p    3 1.00
                 9.439   0.056979251590039
                 2.002    0.31320721150073
                0.5456    0.76037674173753
 p    1 1.00
                0.1517                   1
 d    1 1.00
                  0.55                   1

8 0
 s    8 1.00
                 11720  0.00070964594651845
                  1759  0.0054672722921914
                 400.8   0.027823118610189
                 113.7    0.10474773971146
                 37.03    0.28292084635691
                 13.27    0.44849523869833
                 5.025    0.27081688521277
                 1.013    0.01545029160744
 s    8 1.00
                 11720  -0.00031444341168873
                  1759  -0.0024821376810179
                 400.8  -0.012316355381583
                 113.7  -0.050538917343672
                 37.03   -0.13938490331632
                 13.27   -0.32507749481778
                 5.025   -0.22984830758785
                 1.013     1.0953793467883
 s    1 1.00
                0.3023                   1
 p    3 1.00
                  17.7   0.062679166281506
                 3.854    0.33353656587936
                 1.046    0.74123964163973
 p    1 1.00
                0.2753                   1
 d    1 1.00
                 1.185                   1

9 0
 s    8 1.00
                  6665  0.00069158396281299
                  1000  0.0053257961529341
                   228   0.027060721042034
                 64.71    0.10165684614077
                 21.06     0.2745748236174
                 7.495    0.44829431892377
                 2.797    0.28490261071525
                0.5215   0.015194859206082
 s    8 1.00
                  6665  -0.00029326965268655
                  1000  -0.0023180354739745
                   228  -0.011499786038565
                 64.71  -0.046826727009787
                 21.06   -0.12846616875047
                 7.495   -0.30126627246289
                 2.797   -0.25563070233011
                0.5215      1.093793361012
 s    1 1.00
                0.1596                   1
 p    3 1.00
                 9.439   0.056979251590039
                 2.002    0.31320721150073
                0.5456    0.76037674173753
 p    1 1.00
                0.1517                   1
 d    1 1.00
                  0.55                   1

10 0
 s    3 1.00
                 13.01   0.033498726389998
                 1.962    0.23480080117413
                0.4446     0.8136829578829
 s    1 1.00
                 0.122                   1
 p    1 1.00
                 0.727                   1

11 0
 s    8 1.00
                  6665  0.00069158396281299
                  1000  0.0053257961529341
                   228   0.027060721042034
                 64.71    0.10165684614077
                 21.06     0.2745748236174
                 7.495    0.44829431892377
                 2.797    0.28490261071525
                0.5215   0.015194859206082
 s    8 1.00
                  6665  -0.00029326965268655
                  1000  -0.0023180354739745
                   228  -0.011499786038565
                 64.71  -0.046826727009787
                 21.06   -0.12846616875047
                 7.495   -0.30126627246289
                 2.797   -0.25563070233011
                0.5215      1.093793361012
 s    1 1.00
                0.1596                   1
 p    3 1.00
                 9.439   0.056979251590039
                 2.002    0.31320721150073
                0.5456    0.76037674173753
 p    1 1.00
                0.1517                   1
 d    1 1.00
                  0.55                   1

12 0
 s    8 1.00
                 11720  0.00070964594651845
                  1759  0.0054672722921914
                 400.8   0.027823118610189
                 113.7    0.10474773971146
                 37.03    0.28292084635691
                 13.27    0.44849523869833
                 5.025    0.27081688521277
                 1.013    0.01545029160744
 s    8 1.00
                 11720  -0.00031444341168873
                  1759  -0.0024821376810179
                 400.8  -0.012316355381583
                 113.7  -0.050538917343672
                 37.03   -0.13938490331632
                 13.27   -0.32507749481778
                 5.025   -0.22984830758785
                 1.013     1.0953793467883
 s    1 1.00
                0.3023                   1
 p    3 1.00
                  17.7   0.062679166281506
                 3.854    0.33353656587936
                 1.046    0.74123964163973
 p    1 1.00
                0.2753                   1
 d    1 1.00
                 1.185                   1

13 0
 s    3 1.00
                 13.01   0.033498726389998
                 1.962    0.23480080117413
                0.4446     0.8136829578829
 s    1 1.00
                 0.122                   1
 p    1 1.00
                 0.727                   1

14 0
 s    3 1.00
                 13.01   0.033498726389998
                 1.962    0.23480080117413
                0.4446     0.8136829578829
 s    1 1.00
                 0.122                   1
 p    1 1.00
                 0.727                   1

15 0
 s    3 1.00
                 13.01   0.033498726389998
                 1.962    0.23480080117413
                0.4446     0.8136829578829
 s    1 1.00
                 0.122                   1
 p    1 1.00
                 0.727                   1

16 0
 s    8 1.00
                 11720  0.00070964594651845
                  1759  0.0054672722921914
                 400.8   0.027823118610189
                 113.7    0.10474773971146
                 37.03    0.28292084635691
                 13.27    0.44849523869833
                 5.025    0.27081688521277
                 1.013    0.01545029160744
 s    8 1.00
                 11720  -0.00031444341168873
                  1759  -0.0024821376810179
                 400.8  -0.012316355381583
                 113.7  -0.050538917343672
                 37.03   -0.13938490331632
                 13.27   -0.32507749481778
                 5.025   -0.22984830758785
                 1.013     1.0953793467883
 s    1 1.00
                0.3023                   1
 p    3 1.00
                  17.7   0.062679166281506
                 3.854    0.33353656587936
                 1.046    0.74123964163973
 p    1 1.00
                0.2753                   1
 d    1 1.00
                 1.185                   1

17 0
 s    3 1.00
                 13.01   0.033498726389998
                 1.962    0.23480080117413
                0.4446     0.8136829578829
 s    1 1.00
                 0.122                   1
 p    1 1.00
                 0.727                   1

18 0
 s    3 1.00
                 13.01   0.033498726389998
                 1.962    0.23480080117413
                0.4446     0.8136829578829
 s    1 1.00
                 0.122                   1
 p    1 1.00
                 0.727                   1

19 0
 s    8 1.00
                 11720  0.00070964594651845
                  1759  0.0054672722921914
                 400.8   0.027823118610189
                 113.7    0.10474773971146
                 37.03    0.28292084635691
                 13.27    0.44849523869833
                 5.025    0.27081688521277
                 1.013    0.01545029160744
 s    8 1.00
                 11720  -0.00031444341168873
                  1759  -0.0024821376810179
                 400.8  -0.012316355381583
                 113.7  -0.050538917343672
                 37.03   -0.13938490331632
                 13.27   -0.32507749481778
                 5.025   -0.22984830758785
                 1.013     1.0953793467883
 s    1 1.00
                0.3023                   1
 p    3 1.00
                  17.7   0.062679166281506
                 3.854    0.33353656587936
                 1.046    0.74123964163973
 p    1 1.00
                0.2753                   1
 d    1 1.00
                 1.185                   1

20 0
 s    3 1.00
                 13.01   0.033498726389998
                 1.962    0.23480080117413
                0.4446     0.8136829578829
 s    1 1.00
                 0.122                   1
 p    1 1.00
                 0.727                   1

21 0
 s    3 1.00
                 13.01   0.033498726389998
                 1.962    0.23480080117413
                0.4446     0.8136829578829
 s    1 1.00
                 0.122                   1
 p    1 1.00
                 0.727                   1

22 0
 s    3 1.00
                 13.01   0.033498726389998
                 1.962    0.23480080117413
                0.4446     0.8136829578829
 s    1 1.00
                 0.122                   1
 p    1 1.00
                 0.727                   1

23 0
 s    3 1.00
                 13.01   0.033498726389998
                 1.962    0.23480080117413
                0.4446     0.8136829578829
 s    1 1.00
                 0.122                   1
 p    1 1.00
                 0.727                   1

24 0
 s    3 1.00
                 13.01   0.033498726389998
                 1.962    0.23480080117413
                0.4446     0.8136829578829
 s    1 1.00
                 0.122                   1
 p    1 1.00
                 0.727                   1

[5d]
[7f]
[9g]

[MO]
 Sym= A
 Ene=     -20.5989454
 Spin= Alpha
 Occup=    2.00000
   1    -0.0014109715056027
   2    -0.00093391240680437
   3     0.020214749248203
   4    -0.00028875085303797
   5    0.0014128917525749
   6    0.0007414733924804
   7    -0.0080015803870573
   8    0.00032175313282551
   9    0.0064772834168514
  10    1.5157356778825e-05
  11    -0.00076309640755131
  12    0.0002497858647132
  13    0.00020795029916888
  14    -0.00045053952800544
  15    0.00020774962484617
  16    2.5274008589046e-05
  17    -0.002515786470873
  18    -2.4096627684968e-05
  19    -0.0013088554360901
  20    -0.00038397345875686
  21    0.0023042109739456
  22    -0.0011374096844903
  23    -0.0018013507846314
  24    9.9202916306767e-05
  25    -1.3234357243839e-05
  26    6.2175449560279e-06
  27    -4.2673404151739e-05
  28    0.00012504985587602
  29    0.00013754314919384
  30    0.0023569043443525
  31    0.0059787666867723
  32    -0.0026662833596811
  33    -0.0020170619017818
  34    -0.00017158810639281
  35      -0.0142741106205
  36    -0.011910603942876
  37     0.004066126762634
  38    -0.0011022775067147
  39    0.00049871175645968
  40    -0.00022090281524491
  41    0.00023572747092811
  42    0.00047802017350068
  43    0.0017024388221044
  44    0.0019409887582943
  45    -0.012184930580492
  46    0.0014685203698743
  47    -0.0029403513813831
  48    -0.0016328586348819
  49    0.0042306629557098
  50    -0.001684049699623
  51    -0.0031954644683655
  52    0.00045807535759078
  53    0.0001987148655883
  54    -9.3432290512532e-05
  55    -0.00043529197858502
  56    6.4060183975044e-05
  57    -0.00065285384461861
  58     0.013272110218342
  59     0.073715264430974
  60    -0.020017526671422
  61    0.0056447094860071
  62     0.018759120268143
  63    -0.058740886885617
  64     0.010331191285938
  65     0.021086026599599
  66    -0.0026495147070425
  67    -0.0013151398803564
  68    0.00054099059803505
  69    0.0011463713317098
  70    2.0413718571115e-05
  71    -0.012032455972578
  72    -0.024290584126372
  73    -0.0006097433079149
  74    0.00076852900736079
  75    0.00058596016673422
  76    0.0031478622251017
  77    -0.032401893741505
  78    -0.089589769991134
  79     -0.01615892883272
  80     0.014060403199852
  81    -0.051167856126785
  82    -0.0089094954390253
  83     0.046127562345291
  84     0.022321244965394
  85     0.013573652207186
  86    -0.0028673780873062
  87     0.019893718601713
  88    0.0081523295124495
  89    0.0040660247706492
  90    -0.0021093941940135
  91      0.29916557749393
  92      0.38780509517192
  93    -0.043774272139987
  94      0.37904216240864
  95      0.32628085519464
  96    -0.040319535077104
  97      0.28015086889389
  98      0.25453263157524
  99    -0.0051754110479324
 100    -0.0039258296851063
 101    -0.010535907463794
 102    0.0074601633163055
 103    -0.0056772921747725
 104    -0.00096809408483474
 105    0.0028893750638724
 106     0.034310504197244
 107     0.013531319901081
 108    -0.001696834593403
 109    -0.0033528241529445
 110     0.045646529721794
 111    -0.020618966479464
 112     0.001149769901617
 113    -0.0018255216885549
 114    -0.0026011419978823
 115    -0.0014034099607183
 116    7.2071776693042e-05
 117    0.00021085315993873
 118    -0.0016959824953245
 119     0.025516310699632
 120    0.00071237326427708
 121    -2.9978666279955e-05
 122    -0.00015386517965741
 123    -0.00089233895567067
 124    -0.0031928808021063
 125    0.0055768112837834
 126    -0.00018789215166797
 127    0.0019699238683041
 128    -0.0024262248487033
 129    -0.0010122808758259
 130    0.0092042567715987
 131    0.00089951966276758
 132    4.6305340596747e-05
 133    0.00067275651623298
 134    0.00025661199130489
 135    0.0010373346651489
 136    0.00019751951936741
 137    -0.00026238063251044
 138    0.0004831243036652
 139    0.0036171778936174
 140    0.0022977849977573
 141    -0.00030992999147082
 142    0.0014601192277441
 143    0.0028728483257475
 144    -0.0020344045149121
 145     0.002552140372818
 146    -4.0953797228669e-05
 147    -5.4686698106913e-05
 148    -0.00012642138871124
 149    -0.00012534632497957
 150    -8.9850178719461e-06
 151    8.2403775924123e-06
 152    0.0015240232382368
 153    0.00044507916435619
 154    -5.0829806851881e-05
 155    3.5049549883322e-05
 156    -0.0018955918076719
 157    0.0041652574975398
 158    0.00038201354161884
 159    -6.8082297713525e-05
 160    -0.00035583387266526
 161    -0.0021467033103608
 162      0.01568520442677
 163    -0.0013489187787648
 164    0.0018747918423448
 165     0.001004706000732
 166    0.00013854473080397
 167    0.0015491133358618
 168    0.0009186979433398
 169    0.0012493358085191
 170    -0.0001586695779774
 171    0.0042083133980545
 172    0.0074593512712208
 173    -0.0077163050663113
 174    -0.00051169562544757
 175    -0.00048631283655077
 176    0.00051544796091272
 177    9.7962335470909e-05
 178    0.00016141441120061
 179    -0.00034227995419621
 180    -0.043602213280903
 181    -0.041976978005144
 182    -0.00032696241909484
 183    0.00062336226769337
 184    -0.0037442449480795
 185    -0.076200262213218
 186    -0.015912374974679
 187    -0.0075782470045263
 188    0.0090842238593696
 189     0.017238191489471
 190    0.0021309910087402
 191     0.006982423748776
 192    -0.0095631777766156
 193    0.0074008419001641
 194     0.002200215426623
 195    0.0041275623164576
 196    -0.0018356864825515
 197    -0.0063455181843809
 198    0.0024683217415203
 199    -1.9579023624585e-05
 200    -0.00098329231416183
 201    -0.00039239518827063
 202    -0.00029559539351161
 203    -0.00023381516793867
 204    -0.002517826897392
 205    -0.00015169770983517
 206    -0.00038031515462434
 207    -0.00028312650940225
 208    -0.00059261241656041
 209    -0.000322959402269
 210    -0.0047742212068829
 211    -2.040834900412e-05
 212    -8.3103182266565e-05
 213    -0.00016771075447662
 214    1.4662166412068e-05
 215    -0.00058859657890916
 216    3.3198213881706e-05
 217    -0.00022732950189242
 218    0.00014804015196152
 219     0.003451838383995
 220      -0.0121417259435
 221    0.0013075723012714
 222    -0.00071453536645681
 223    -0.00045540307681441
 224    0.0049574712855883
 225    -0.015020095113432
 226    -0.00029365014243437
 227    -0.00021962913939829
 228    0.00030652555767887
