[Molden Format]
made by pyscf v[2.1.0]
[Atoms] (AU)
C   1   6     5.80518952178463     0.50358555603085    -2.01447450495210
O   2   8     7.59006230260208    -0.90749372816926    -2.10619425213399
C   3   6     4.06257668629083     0.88716594424731     0.25526042545400
O   4   8     4.92221121062936    -0.52198770903186     2.35899047472156
C   5   6     1.33654470639501     0.10405776904918    -0.51168492220073
H   6   1     0.89689425433657     0.93209418285884    -2.36575758397362
C   7   6    -0.64932879366180     1.09909683939116     1.38333243551311
O   8   8    -0.00969996419739     0.43834276158024     3.94911375031970
C   9   6    -3.35971006179398     0.18432766564233     0.79610193203064
H   10   1    -4.66165577257433     1.18213140530455     2.06285149374097
C   11   6    -4.19715353225174     0.65517938574345    -1.93554631390739
O   12   8    -6.81065988033421     0.10526341431665    -2.27483908066855
H   13   1     5.22581272007586     1.68491382773245    -3.67455355195552
H   14   1     4.03225036144381     2.94522509253638     0.63780524375420
H   15   1     3.63813663980902    -0.25163782047321     3.65830001755813
O   16   8     1.20169573987217    -2.59733407190845    -0.80186748643669
H   17   1    -0.61314809728088     3.17348700084872     1.28243995772258
H   18   1    -0.91242591335437    -1.12422074821725     4.30347519319814
O   19   8    -3.63012231131474    -2.45370354808476     1.43919651920751
H   20   1    -3.01998643747642    -0.49263081368674    -3.22017268475610
H   21   1    -3.94341055687576     2.65625195302014    -2.42398382532372
H   22   1    -7.07185971499772    -1.58002646891459    -1.60535635788826
H   23   1     2.47305434360030    -3.30624782000391     0.32275766317121
H   24   1    -2.30526934045242    -3.31584195953833     0.48480734753104
[GTO]
1 0
 s    8 1.00
                  6665  0.00069158396281299
                  1000  0.0053257961529341
                   228   0.027060721042034
                 64.71    0.10165684614077
                 21.06     0.2745748236174
                 7.495    0.44829431892377
                 2.797    0.28490261071525
                0.5215   0.015194859206082
 s    8 1.00
                  6665  -0.00029326965268655
                  1000  -0.0023180354739745
                   228  -0.011499786038565
                 64.71  -0.046826727009787
                 21.06   -0.12846616875047
                 7.495   -0.30126627246289
                 2.797   -0.25563070233011
                0.5215      1.093793361012
 s    1 1.00
                0.1596                   1
 p    3 1.00
                 9.439   0.056979251590039
                 2.002    0.31320721150073
                0.5456    0.76037674173753
 p    1 1.00
                0.1517                   1
 d    1 1.00
                  0.55                   1

2 0
 s    8 1.00
                 11720  0.00070964594651845
                  1759  0.0054672722921914
                 400.8   0.027823118610189
                 113.7    0.10474773971146
                 37.03    0.28292084635691
                 13.27    0.44849523869833
                 5.025    0.27081688521277
                 1.013    0.01545029160744
 s    8 1.00
                 11720  -0.00031444341168873
                  1759  -0.0024821376810179
                 400.8  -0.012316355381583
                 113.7  -0.050538917343672
                 37.03   -0.13938490331632
                 13.27   -0.32507749481778
                 5.025   -0.22984830758785
                 1.013     1.0953793467883
 s    1 1.00
                0.3023                   1
 p    3 1.00
                  17.7   0.062679166281506
                 3.854    0.33353656587936
                 1.046    0.74123964163973
 p    1 1.00
                0.2753                   1
 d    1 1.00
                 1.185                   1

3 0
 s    8 1.00
                  6665  0.00069158396281299
                  1000  0.0053257961529341
                   228   0.027060721042034
                 64.71    0.10165684614077
                 21.06     0.2745748236174
                 7.495    0.44829431892377
                 2.797    0.28490261071525
                0.5215   0.015194859206082
 s    8 1.00
                  6665  -0.00029326965268655
                  1000  -0.0023180354739745
                   228  -0.011499786038565
                 64.71  -0.046826727009787
                 21.06   -0.12846616875047
                 7.495   -0.30126627246289
                 2.797   -0.25563070233011
                0.5215      1.093793361012
 s    1 1.00
                0.1596                   1
 p    3 1.00
                 9.439   0.056979251590039
                 2.002    0.31320721150073
                0.5456    0.76037674173753
 p    1 1.00
                0.1517                   1
 d    1 1.00
                  0.55                   1

4 0
 s    8 1.00
                 11720  0.00070964594651845
                  1759  0.0054672722921914
                 400.8   0.027823118610189
                 113.7    0.10474773971146
                 37.03    0.28292084635691
                 13.27    0.44849523869833
                 5.025    0.27081688521277
                 1.013    0.01545029160744
 s    8 1.00
                 11720  -0.00031444341168873
                  1759  -0.0024821376810179
                 400.8  -0.012316355381583
                 113.7  -0.050538917343672
                 37.03   -0.13938490331632
                 13.27   -0.32507749481778
                 5.025   -0.22984830758785
                 1.013     1.0953793467883
 s    1 1.00
                0.3023                   1
 p    3 1.00
                  17.7   0.062679166281506
                 3.854    0.33353656587936
                 1.046    0.74123964163973
 p    1 1.00
                0.2753                   1
 d    1 1.00
                 1.185                   1

5 0
 s    8 1.00
                  6665  0.00069158396281299
                  1000  0.0053257961529341
                   228   0.027060721042034
                 64.71    0.10165684614077
                 21.06     0.2745748236174
                 7.495    0.44829431892377
                 2.797    0.28490261071525
                0.5215   0.015194859206082
 s    8 1.00
                  6665  -0.00029326965268655
                  1000  -0.0023180354739745
                   228  -0.011499786038565
                 64.71  -0.046826727009787
                 21.06   -0.12846616875047
                 7.495   -0.30126627246289
                 2.797   -0.25563070233011
                0.5215      1.093793361012
 s    1 1.00
                0.1596                   1
 p    3 1.00
                 9.439   0.056979251590039
                 2.002    0.31320721150073
                0.5456    0.76037674173753
 p    1 1.00
                0.1517                   1
 d    1 1.00
                  0.55                   1

6 0
 s    3 1.00
                 13.01   0.033498726389998
                 1.962    0.23480080117413
                0.4446     0.8136829578829
 s    1 1.00
                 0.122                   1
 p    1 1.00
                 0.727                   1

7 0
 s    8 1.00
                  6665  0.00069158396281299
                  1000  0.0053257961529341
                   228   0.027060721042034
                 64.71    0.10165684614077
                 21.06     0.2745748236174
                 7.495    0.44829431892377
                 2.797    0.28490261071525
                0.5215   0.015194859206082
 s    8 1.00
                  6665  -0.00029326965268655
                  1000  -0.0023180354739745
                   228  -0.011499786038565
                 64.71  -0.046826727009787
                 21.06   -0.12846616875047
                 7.495   -0.30126627246289
                 2.797   -0.25563070233011
                0.5215      1.093793361012
 s    1 1.00
                0.1596                   1
 p    3 1.00
                 9.439   0.056979251590039
                 2.002    0.31320721150073
                0.5456    0.76037674173753
 p    1 1.00
                0.1517                   1
 d    1 1.00
                  0.55                   1

8 0
 s    8 1.00
                 11720  0.00070964594651845
                  1759  0.0054672722921914
                 400.8   0.027823118610189
                 113.7    0.10474773971146
                 37.03    0.28292084635691
                 13.27    0.44849523869833
                 5.025    0.27081688521277
                 1.013    0.01545029160744
 s    8 1.00
                 11720  -0.00031444341168873
                  1759  -0.0024821376810179
                 400.8  -0.012316355381583
                 113.7  -0.050538917343672
                 37.03   -0.13938490331632
                 13.27   -0.32507749481778
                 5.025   -0.22984830758785
                 1.013     1.0953793467883
 s    1 1.00
                0.3023                   1
 p    3 1.00
                  17.7   0.062679166281506
                 3.854    0.33353656587936
                 1.046    0.74123964163973
 p    1 1.00
                0.2753                   1
 d    1 1.00
                 1.185                   1

9 0
 s    8 1.00
                  6665  0.00069158396281299
                  1000  0.0053257961529341
                   228   0.027060721042034
                 64.71    0.10165684614077
                 21.06     0.2745748236174
                 7.495    0.44829431892377
                 2.797    0.28490261071525
                0.5215   0.015194859206082
 s    8 1.00
                  6665  -0.00029326965268655
                  1000  -0.0023180354739745
                   228  -0.011499786038565
                 64.71  -0.046826727009787
                 21.06   -0.12846616875047
                 7.495   -0.30126627246289
                 2.797   -0.25563070233011
                0.5215      1.093793361012
 s    1 1.00
                0.1596                   1
 p    3 1.00
                 9.439   0.056979251590039
                 2.002    0.31320721150073
                0.5456    0.76037674173753
 p    1 1.00
                0.1517                   1
 d    1 1.00
                  0.55                   1

10 0
 s    3 1.00
                 13.01   0.033498726389998
                 1.962    0.23480080117413
                0.4446     0.8136829578829
 s    1 1.00
                 0.122                   1
 p    1 1.00
                 0.727                   1

11 0
 s    8 1.00
                  6665  0.00069158396281299
                  1000  0.0053257961529341
                   228   0.027060721042034
                 64.71    0.10165684614077
                 21.06     0.2745748236174
                 7.495    0.44829431892377
                 2.797    0.28490261071525
                0.5215   0.015194859206082
 s    8 1.00
                  6665  -0.00029326965268655
                  1000  -0.0023180354739745
                   228  -0.011499786038565
                 64.71  -0.046826727009787
                 21.06   -0.12846616875047
                 7.495   -0.30126627246289
                 2.797   -0.25563070233011
                0.5215      1.093793361012
 s    1 1.00
                0.1596                   1
 p    3 1.00
                 9.439   0.056979251590039
                 2.002    0.31320721150073
                0.5456    0.76037674173753
 p    1 1.00
                0.1517                   1
 d    1 1.00
                  0.55                   1

12 0
 s    8 1.00
                 11720  0.00070964594651845
                  1759  0.0054672722921914
                 400.8   0.027823118610189
                 113.7    0.10474773971146
                 37.03    0.28292084635691
                 13.27    0.44849523869833
                 5.025    0.27081688521277
                 1.013    0.01545029160744
 s    8 1.00
                 11720  -0.00031444341168873
                  1759  -0.0024821376810179
                 400.8  -0.012316355381583
                 113.7  -0.050538917343672
                 37.03   -0.13938490331632
                 13.27   -0.32507749481778
                 5.025   -0.22984830758785
                 1.013     1.0953793467883
 s    1 1.00
                0.3023                   1
 p    3 1.00
                  17.7   0.062679166281506
                 3.854    0.33353656587936
                 1.046    0.74123964163973
 p    1 1.00
                0.2753                   1
 d    1 1.00
                 1.185                   1

13 0
 s    3 1.00
                 13.01   0.033498726389998
                 1.962    0.23480080117413
                0.4446     0.8136829578829
 s    1 1.00
                 0.122                   1
 p    1 1.00
                 0.727                   1

14 0
 s    3 1.00
                 13.01   0.033498726389998
                 1.962    0.23480080117413
                0.4446     0.8136829578829
 s    1 1.00
                 0.122                   1
 p    1 1.00
                 0.727                   1

15 0
 s    3 1.00
                 13.01   0.033498726389998
                 1.962    0.23480080117413
                0.4446     0.8136829578829
 s    1 1.00
                 0.122                   1
 p    1 1.00
                 0.727                   1

16 0
 s    8 1.00
                 11720  0.00070964594651845
                  1759  0.0054672722921914
                 400.8   0.027823118610189
                 113.7    0.10474773971146
                 37.03    0.28292084635691
                 13.27    0.44849523869833
                 5.025    0.27081688521277
                 1.013    0.01545029160744
 s    8 1.00
                 11720  -0.00031444341168873
                  1759  -0.0024821376810179
                 400.8  -0.012316355381583
                 113.7  -0.050538917343672
                 37.03   -0.13938490331632
                 13.27   -0.32507749481778
                 5.025   -0.22984830758785
                 1.013     1.0953793467883
 s    1 1.00
                0.3023                   1
 p    3 1.00
                  17.7   0.062679166281506
                 3.854    0.33353656587936
                 1.046    0.74123964163973
 p    1 1.00
                0.2753                   1
 d    1 1.00
                 1.185                   1

17 0
 s    3 1.00
                 13.01   0.033498726389998
                 1.962    0.23480080117413
                0.4446     0.8136829578829
 s    1 1.00
                 0.122                   1
 p    1 1.00
                 0.727                   1

18 0
 s    3 1.00
                 13.01   0.033498726389998
                 1.962    0.23480080117413
                0.4446     0.8136829578829
 s    1 1.00
                 0.122                   1
 p    1 1.00
                 0.727                   1

19 0
 s    8 1.00
                 11720  0.00070964594651845
                  1759  0.0054672722921914
                 400.8   0.027823118610189
                 113.7    0.10474773971146
                 37.03    0.28292084635691
                 13.27    0.44849523869833
                 5.025    0.27081688521277
                 1.013    0.01545029160744
 s    8 1.00
                 11720  -0.00031444341168873
                  1759  -0.0024821376810179
                 400.8  -0.012316355381583
                 113.7  -0.050538917343672
                 37.03   -0.13938490331632
                 13.27   -0.32507749481778
                 5.025   -0.22984830758785
                 1.013     1.0953793467883
 s    1 1.00
                0.3023                   1
 p    3 1.00
                  17.7   0.062679166281506
                 3.854    0.33353656587936
                 1.046    0.74123964163973
 p    1 1.00
                0.2753                   1
 d    1 1.00
                 1.185                   1

20 0
 s    3 1.00
                 13.01   0.033498726389998
                 1.962    0.23480080117413
                0.4446     0.8136829578829
 s    1 1.00
                 0.122                   1
 p    1 1.00
                 0.727                   1

21 0
 s    3 1.00
                 13.01   0.033498726389998
                 1.962    0.23480080117413
                0.4446     0.8136829578829
 s    1 1.00
                 0.122                   1
 p    1 1.00
                 0.727                   1

22 0
 s    3 1.00
                 13.01   0.033498726389998
                 1.962    0.23480080117413
                0.4446     0.8136829578829
 s    1 1.00
                 0.122                   1
 p    1 1.00
                 0.727                   1

23 0
 s    3 1.00
                 13.01   0.033498726389998
                 1.962    0.23480080117413
                0.4446     0.8136829578829
 s    1 1.00
                 0.122                   1
 p    1 1.00
                 0.727                   1

24 0
 s    3 1.00
                 13.01   0.033498726389998
                 1.962    0.23480080117413
                0.4446     0.8136829578829
 s    1 1.00
                 0.122                   1
 p    1 1.00
                 0.727                   1

[5d]
[7f]
[9g]

[MO]
 Sym= A
 Ene=     -20.5989454
 Spin= Alpha
 Occup=    2.00000
   1    -0.00031573571060342
   2    0.0050208412804028
   3     0.046311757151737
   4    -0.011634809473104
   5    -0.0088595320043501
   6    0.0034603060509343
   7    -0.019302706581193
   8    -0.0085914488017057
   9     0.014604816814632
  10    0.00075366014511201
  11    0.00027910810681641
  12    0.0001929182489865
  13    0.0018513915793749
  14    -0.00040634072404615
  15    0.00077448914609837
  16    0.0015992288769134
  17    -0.0063422761938382
  18    -8.7801373282448e-05
  19    -0.002023753867844
  20    0.0020237389868214
  21    0.0067874107121403
  22    0.0019477960727651
  23    -0.0018164318662417
  24    6.4724013204755e-05
  25    0.00040031464742882
  26    0.00040412879422701
  27    0.00030475179622068
  28    3.1885515371551e-05
  29    0.0039551924409065
  30    0.0099604988915108
  31    -0.029887342817456
  32     0.010037658399726
  33    0.0027276861598718
  34     0.011638822250177
  35    0.0086876649531565
  36    0.0086047423860943
  37     0.056930958165513
  38     0.019970483614313
  39     0.017379439291928
  40     0.014837613779777
  41     0.025164781041731
  42     0.001084654070143
  43    0.0049319871806107
  44    -0.043047675128738
  45    -0.096435840668167
  46      0.26918480763651
  47       0.5254718304476
  48      0.20509778258929
  49      0.21645939945176
  50      0.39915528017781
  51      0.15815336711709
  52    -0.0020880619443856
  53    -0.0066724194473761
  54    -8.2018433503367e-05
  55    -0.014539580206885
  56    -0.0090870947915183
  57    0.0023972985500281
  58     0.026563575135436
  59     0.056764791297235
  60     0.040440023784362
  61    0.0051386990266115
  62     0.016591429847229
  63     0.061059681494495
  64    0.0068501998149264
  65    -0.033349928681119
  66    -0.001413349290011
  67    -0.00037651208531284
  68    0.0011643569503352
  69    0.00059077851262064
  70    -0.00040497809919495
  71    -0.013600666697832
  72      -0.0323160009149
  73    0.0018208452639722
  74    0.0015806468447381
  75    0.00019536010292189
  76    -0.0017212771774685
  77    -7.2170322368021e-05
  78     0.046966402566179
  79    0.0039725157387401
  80    4.8560044379452e-05
  81    0.0011151898382164
  82    0.0021175716080189
  83    -0.019583107249988
  84    -0.0072413426272172
  85    -0.0021323954337757
  86    -0.00059870723687039
  87    -0.00040513299114882
  88    0.0013682240560331
  89    -0.00094198539344137
  90    0.0010420073678725
  91    0.0018191610382358
  92    -0.0088109977974971
  93    0.0024238477267658
  94    -0.0050153711166997
  95    0.00012518147856248
  96    0.0017374329953779
  97    0.0022183206036213
  98    0.0049585209873923
  99    0.00027938443275431
 100    0.00028685772242817
 101    -0.00022171233199118
 102    -7.6938675644222e-06
 103    0.00045124098279311
 104    0.00052143193920961
 105    0.0020062656932396
 106    -0.012876486620193
 107    0.0014772774355103
 108    0.00068856196714361
 109    -0.00056495161948624
 110    -0.003894179000206
 111     0.002104722325865
 112    -0.00041314467728376
 113    0.00021691460238343
 114    -3.4360335712366e-05
 115    0.00013403763630912
 116    -0.00057068188915158
 117    8.9720715365502e-05
 118    -0.00094039342983682
 119    -0.00050632053599779
 120    0.00030584276135689
 121    5.272431372929e-05
 122    -8.7975199853807e-06
 123    -1.6799143418858e-05
 124    0.0016612487439542
 125    0.0046388874331229
 126     0.001523467924909
 127    -0.0012220743976838
 128    -0.0005348495140034
 129    0.0027278804287704
 130    -0.0005228297573881
 131    -0.00070507565404378
 132    0.00029332202313619
 133    6.1258619771133e-05
 134    -1.1375696822764e-05
 135    -0.00028492365747788
 136    -0.00011240948153146
 137    -8.5023615224849e-05
 138    -0.00039390189735205
 139    0.00054958253944023
 140    -0.0011344858359925
 141    0.00017130230055464
 142    0.00036726133744534
 143    -0.0010419703895132
 144    -0.00011620171566652
 145    0.00037293145613984
 146    -2.7339083634108e-05
 147    -3.583117905997e-05
 148    -3.2805334846364e-05
 149    -3.4819484631434e-06
 150    1.3709943540654e-06
 151    -0.0016094924782363
 152    -1.2237107768416e-05
 153    -0.00050971868563023
 154    -0.00034695469206109
 155    -0.00021901639836752
 156    -0.055451742868127
 157    -0.060602610147585
 158    1.0473123973435e-05
 159    -0.00085825316390932
 160    -0.0026427944655365
 161     0.015399573503939
 162     0.012825162737457
 163     0.014712233864041
 164     0.023254955260475
 165    0.0062989496080809
 166    -0.0015496179716037
 167    0.0064284349865348
 168     0.031474858769728
 169     0.016622657459993
 170    -0.0036319151798337
 171      0.01845746082554
 172     0.014920061663098
 173    -0.018808354578784
 174       0.0234732166535
 175    0.00013801343242413
 176    -4.0644336529035e-05
 177    0.0002792682512786
 178    -0.00011597849304232
 179    0.00037437159807772
 180    -7.931542037609e-05
 181     0.002480419823629
 182    1.4969971368277e-05
 183    0.00023973981403046
 184    9.8953592326459e-05
 185    0.0065142564227876
 186    -0.0067465252700001
 187    0.00070324523111674
 188    0.00042140462122097
 189    -3.2343887687056e-05
 190    0.00032217123679484
 191    0.00055536498011133
 192    -0.0029579342575179
 193    0.00030131182725857
 194    -0.00035832441037139
 195    -0.00041724426730326
 196    -0.00052090474095586
 197    0.0026547458793623
 198    0.00082185655415995
 199    4.9844833370736e-05
 200    0.00012885842618058
 201    -4.2186905328304e-05
 202    -0.00014074935152767
 203    0.00013625789089991
 204    0.0014762913729765
 205    -0.00045025979291708
 206    -0.00026326372505765
 207    0.00013406719662379
 208    2.9683845239279e-06
 209    -0.00034537595068356
 210    0.00053731313680532
 211    7.1737638755442e-06
 212    -0.00010270716653038
 213    3.9340244123426e-05
 214    6.6729893251987e-06
 215    -0.00072311036558842
 216    -8.4544538831049e-05
 217    -0.00011727121647127
 218    6.5614957533185e-05
 219    -0.0099642291102034
 220    -0.061452843389912
 221    -0.0037420269675955
 222    -0.0044136457078966
 223    -0.0033619072881238
 224    -0.00036658455955934
 225     0.012015735223481
 226    -0.00019109254018899
 227    0.00056676920850047
 228    0.00061355871657533
