[Molden Format]
made by pyscf v[2.1.0]
[Atoms] (AU)
C   1   6     5.80518952178463     0.50358555603085    -2.01447450495210
O   2   8     7.59006230260208    -0.90749372816926    -2.10619425213399
C   3   6     4.06257668629083     0.88716594424731     0.25526042545400
O   4   8     4.92221121062936    -0.52198770903186     2.35899047472156
C   5   6     1.33654470639501     0.10405776904918    -0.51168492220073
H   6   1     0.89689425433657     0.93209418285884    -2.36575758397362
C   7   6    -0.64932879366180     1.09909683939116     1.38333243551311
O   8   8    -0.00969996419739     0.43834276158024     3.94911375031970
C   9   6    -3.35971006179398     0.18432766564233     0.79610193203064
H   10   1    -4.66165577257433     1.18213140530455     2.06285149374097
C   11   6    -4.19715353225174     0.65517938574345    -1.93554631390739
O   12   8    -6.81065988033421     0.10526341431665    -2.27483908066855
H   13   1     5.22581272007586     1.68491382773245    -3.67455355195552
H   14   1     4.03225036144381     2.94522509253638     0.63780524375420
H   15   1     3.63813663980902    -0.25163782047321     3.65830001755813
O   16   8     1.20169573987217    -2.59733407190845    -0.80186748643669
H   17   1    -0.61314809728088     3.17348700084872     1.28243995772258
H   18   1    -0.91242591335437    -1.12422074821725     4.30347519319814
O   19   8    -3.63012231131474    -2.45370354808476     1.43919651920751
H   20   1    -3.01998643747642    -0.49263081368674    -3.22017268475610
H   21   1    -3.94341055687576     2.65625195302014    -2.42398382532372
H   22   1    -7.07185971499772    -1.58002646891459    -1.60535635788826
H   23   1     2.47305434360030    -3.30624782000391     0.32275766317121
H   24   1    -2.30526934045242    -3.31584195953833     0.48480734753104
[GTO]
1 0
 s    8 1.00
                  6665  0.00069158396281299
                  1000  0.0053257961529341
                   228   0.027060721042034
                 64.71    0.10165684614077
                 21.06     0.2745748236174
                 7.495    0.44829431892377
                 2.797    0.28490261071525
                0.5215   0.015194859206082
 s    8 1.00
                  6665  -0.00029326965268655
                  1000  -0.0023180354739745
                   228  -0.011499786038565
                 64.71  -0.046826727009787
                 21.06   -0.12846616875047
                 7.495   -0.30126627246289
                 2.797   -0.25563070233011
                0.5215      1.093793361012
 s    1 1.00
                0.1596                   1
 p    3 1.00
                 9.439   0.056979251590039
                 2.002    0.31320721150073
                0.5456    0.76037674173753
 p    1 1.00
                0.1517                   1
 d    1 1.00
                  0.55                   1

2 0
 s    8 1.00
                 11720  0.00070964594651845
                  1759  0.0054672722921914
                 400.8   0.027823118610189
                 113.7    0.10474773971146
                 37.03    0.28292084635691
                 13.27    0.44849523869833
                 5.025    0.27081688521277
                 1.013    0.01545029160744
 s    8 1.00
                 11720  -0.00031444341168873
                  1759  -0.0024821376810179
                 400.8  -0.012316355381583
                 113.7  -0.050538917343672
                 37.03   -0.13938490331632
                 13.27   -0.32507749481778
                 5.025   -0.22984830758785
                 1.013     1.0953793467883
 s    1 1.00
                0.3023                   1
 p    3 1.00
                  17.7   0.062679166281506
                 3.854    0.33353656587936
                 1.046    0.74123964163973
 p    1 1.00
                0.2753                   1
 d    1 1.00
                 1.185                   1

3 0
 s    8 1.00
                  6665  0.00069158396281299
                  1000  0.0053257961529341
                   228   0.027060721042034
                 64.71    0.10165684614077
                 21.06     0.2745748236174
                 7.495    0.44829431892377
                 2.797    0.28490261071525
                0.5215   0.015194859206082
 s    8 1.00
                  6665  -0.00029326965268655
                  1000  -0.0023180354739745
                   228  -0.011499786038565
                 64.71  -0.046826727009787
                 21.06   -0.12846616875047
                 7.495   -0.30126627246289
                 2.797   -0.25563070233011
                0.5215      1.093793361012
 s    1 1.00
                0.1596                   1
 p    3 1.00
                 9.439   0.056979251590039
                 2.002    0.31320721150073
                0.5456    0.76037674173753
 p    1 1.00
                0.1517                   1
 d    1 1.00
                  0.55                   1

4 0
 s    8 1.00
                 11720  0.00070964594651845
                  1759  0.0054672722921914
                 400.8   0.027823118610189
                 113.7    0.10474773971146
                 37.03    0.28292084635691
                 13.27    0.44849523869833
                 5.025    0.27081688521277
                 1.013    0.01545029160744
 s    8 1.00
                 11720  -0.00031444341168873
                  1759  -0.0024821376810179
                 400.8  -0.012316355381583
                 113.7  -0.050538917343672
                 37.03   -0.13938490331632
                 13.27   -0.32507749481778
                 5.025   -0.22984830758785
                 1.013     1.0953793467883
 s    1 1.00
                0.3023                   1
 p    3 1.00
                  17.7   0.062679166281506
                 3.854    0.33353656587936
                 1.046    0.74123964163973
 p    1 1.00
                0.2753                   1
 d    1 1.00
                 1.185                   1

5 0
 s    8 1.00
                  6665  0.00069158396281299
                  1000  0.0053257961529341
                   228   0.027060721042034
                 64.71    0.10165684614077
                 21.06     0.2745748236174
                 7.495    0.44829431892377
                 2.797    0.28490261071525
                0.5215   0.015194859206082
 s    8 1.00
                  6665  -0.00029326965268655
                  1000  -0.0023180354739745
                   228  -0.011499786038565
                 64.71  -0.046826727009787
                 21.06   -0.12846616875047
                 7.495   -0.30126627246289
                 2.797   -0.25563070233011
                0.5215      1.093793361012
 s    1 1.00
                0.1596                   1
 p    3 1.00
                 9.439   0.056979251590039
                 2.002    0.31320721150073
                0.5456    0.76037674173753
 p    1 1.00
                0.1517                   1
 d    1 1.00
                  0.55                   1

6 0
 s    3 1.00
                 13.01   0.033498726389998
                 1.962    0.23480080117413
                0.4446     0.8136829578829
 s    1 1.00
                 0.122                   1
 p    1 1.00
                 0.727                   1

7 0
 s    8 1.00
                  6665  0.00069158396281299
                  1000  0.0053257961529341
                   228   0.027060721042034
                 64.71    0.10165684614077
                 21.06     0.2745748236174
                 7.495    0.44829431892377
                 2.797    0.28490261071525
                0.5215   0.015194859206082
 s    8 1.00
                  6665  -0.00029326965268655
                  1000  -0.0023180354739745
                   228  -0.011499786038565
                 64.71  -0.046826727009787
                 21.06   -0.12846616875047
                 7.495   -0.30126627246289
                 2.797   -0.25563070233011
                0.5215      1.093793361012
 s    1 1.00
                0.1596                   1
 p    3 1.00
                 9.439   0.056979251590039
                 2.002    0.31320721150073
                0.5456    0.76037674173753
 p    1 1.00
                0.1517                   1
 d    1 1.00
                  0.55                   1

8 0
 s    8 1.00
                 11720  0.00070964594651845
                  1759  0.0054672722921914
                 400.8   0.027823118610189
                 113.7    0.10474773971146
                 37.03    0.28292084635691
                 13.27    0.44849523869833
                 5.025    0.27081688521277
                 1.013    0.01545029160744
 s    8 1.00
                 11720  -0.00031444341168873
                  1759  -0.0024821376810179
                 400.8  -0.012316355381583
                 113.7  -0.050538917343672
                 37.03   -0.13938490331632
                 13.27   -0.32507749481778
                 5.025   -0.22984830758785
                 1.013     1.0953793467883
 s    1 1.00
                0.3023                   1
 p    3 1.00
                  17.7   0.062679166281506
                 3.854    0.33353656587936
                 1.046    0.74123964163973
 p    1 1.00
                0.2753                   1
 d    1 1.00
                 1.185                   1

9 0
 s    8 1.00
                  6665  0.00069158396281299
                  1000  0.0053257961529341
                   228   0.027060721042034
                 64.71    0.10165684614077
                 21.06     0.2745748236174
                 7.495    0.44829431892377
                 2.797    0.28490261071525
                0.5215   0.015194859206082
 s    8 1.00
                  6665  -0.00029326965268655
                  1000  -0.0023180354739745
                   228  -0.011499786038565
                 64.71  -0.046826727009787
                 21.06   -0.12846616875047
                 7.495   -0.30126627246289
                 2.797   -0.25563070233011
                0.5215      1.093793361012
 s    1 1.00
                0.1596                   1
 p    3 1.00
                 9.439   0.056979251590039
                 2.002    0.31320721150073
                0.5456    0.76037674173753
 p    1 1.00
                0.1517                   1
 d    1 1.00
                  0.55                   1

10 0
 s    3 1.00
                 13.01   0.033498726389998
                 1.962    0.23480080117413
                0.4446     0.8136829578829
 s    1 1.00
                 0.122                   1
 p    1 1.00
                 0.727                   1

11 0
 s    8 1.00
                  6665  0.00069158396281299
                  1000  0.0053257961529341
                   228   0.027060721042034
                 64.71    0.10165684614077
                 21.06     0.2745748236174
                 7.495    0.44829431892377
                 2.797    0.28490261071525
                0.5215   0.015194859206082
 s    8 1.00
                  6665  -0.00029326965268655
                  1000  -0.0023180354739745
                   228  -0.011499786038565
                 64.71  -0.046826727009787
                 21.06   -0.12846616875047
                 7.495   -0.30126627246289
                 2.797   -0.25563070233011
                0.5215      1.093793361012
 s    1 1.00
                0.1596                   1
 p    3 1.00
                 9.439   0.056979251590039
                 2.002    0.31320721150073
                0.5456    0.76037674173753
 p    1 1.00
                0.1517                   1
 d    1 1.00
                  0.55                   1

12 0
 s    8 1.00
                 11720  0.00070964594651845
                  1759  0.0054672722921914
                 400.8   0.027823118610189
                 113.7    0.10474773971146
                 37.03    0.28292084635691
                 13.27    0.44849523869833
                 5.025    0.27081688521277
                 1.013    0.01545029160744
 s    8 1.00
                 11720  -0.00031444341168873
                  1759  -0.0024821376810179
                 400.8  -0.012316355381583
                 113.7  -0.050538917343672
                 37.03   -0.13938490331632
                 13.27   -0.32507749481778
                 5.025   -0.22984830758785
                 1.013     1.0953793467883
 s    1 1.00
                0.3023                   1
 p    3 1.00
                  17.7   0.062679166281506
                 3.854    0.33353656587936
                 1.046    0.74123964163973
 p    1 1.00
                0.2753                   1
 d    1 1.00
                 1.185                   1

13 0
 s    3 1.00
                 13.01   0.033498726389998
                 1.962    0.23480080117413
                0.4446     0.8136829578829
 s    1 1.00
                 0.122                   1
 p    1 1.00
                 0.727                   1

14 0
 s    3 1.00
                 13.01   0.033498726389998
                 1.962    0.23480080117413
                0.4446     0.8136829578829
 s    1 1.00
                 0.122                   1
 p    1 1.00
                 0.727                   1

15 0
 s    3 1.00
                 13.01   0.033498726389998
                 1.962    0.23480080117413
                0.4446     0.8136829578829
 s    1 1.00
                 0.122                   1
 p    1 1.00
                 0.727                   1

16 0
 s    8 1.00
                 11720  0.00070964594651845
                  1759  0.0054672722921914
                 400.8   0.027823118610189
                 113.7    0.10474773971146
                 37.03    0.28292084635691
                 13.27    0.44849523869833
                 5.025    0.27081688521277
                 1.013    0.01545029160744
 s    8 1.00
                 11720  -0.00031444341168873
                  1759  -0.0024821376810179
                 400.8  -0.012316355381583
                 113.7  -0.050538917343672
                 37.03   -0.13938490331632
                 13.27   -0.32507749481778
                 5.025   -0.22984830758785
                 1.013     1.0953793467883
 s    1 1.00
                0.3023                   1
 p    3 1.00
                  17.7   0.062679166281506
                 3.854    0.33353656587936
                 1.046    0.74123964163973
 p    1 1.00
                0.2753                   1
 d    1 1.00
                 1.185                   1

17 0
 s    3 1.00
                 13.01   0.033498726389998
                 1.962    0.23480080117413
                0.4446     0.8136829578829
 s    1 1.00
                 0.122                   1
 p    1 1.00
                 0.727                   1

18 0
 s    3 1.00
                 13.01   0.033498726389998
                 1.962    0.23480080117413
                0.4446     0.8136829578829
 s    1 1.00
                 0.122                   1
 p    1 1.00
                 0.727                   1

19 0
 s    8 1.00
                 11720  0.00070964594651845
                  1759  0.0054672722921914
                 400.8   0.027823118610189
                 113.7    0.10474773971146
                 37.03    0.28292084635691
                 13.27    0.44849523869833
                 5.025    0.27081688521277
                 1.013    0.01545029160744
 s    8 1.00
                 11720  -0.00031444341168873
                  1759  -0.0024821376810179
                 400.8  -0.012316355381583
                 113.7  -0.050538917343672
                 37.03   -0.13938490331632
                 13.27   -0.32507749481778
                 5.025   -0.22984830758785
                 1.013     1.0953793467883
 s    1 1.00
                0.3023                   1
 p    3 1.00
                  17.7   0.062679166281506
                 3.854    0.33353656587936
                 1.046    0.74123964163973
 p    1 1.00
                0.2753                   1
 d    1 1.00
                 1.185                   1

20 0
 s    3 1.00
                 13.01   0.033498726389998
                 1.962    0.23480080117413
                0.4446     0.8136829578829
 s    1 1.00
                 0.122                   1
 p    1 1.00
                 0.727                   1

21 0
 s    3 1.00
                 13.01   0.033498726389998
                 1.962    0.23480080117413
                0.4446     0.8136829578829
 s    1 1.00
                 0.122                   1
 p    1 1.00
                 0.727                   1

22 0
 s    3 1.00
                 13.01   0.033498726389998
                 1.962    0.23480080117413
                0.4446     0.8136829578829
 s    1 1.00
                 0.122                   1
 p    1 1.00
                 0.727                   1

23 0
 s    3 1.00
                 13.01   0.033498726389998
                 1.962    0.23480080117413
                0.4446     0.8136829578829
 s    1 1.00
                 0.122                   1
 p    1 1.00
                 0.727                   1

24 0
 s    3 1.00
                 13.01   0.033498726389998
                 1.962    0.23480080117413
                0.4446     0.8136829578829
 s    1 1.00
                 0.122                   1
 p    1 1.00
                 0.727                   1

[5d]
[7f]
[9g]

[MO]
 Sym= A
 Ene=     -20.5989454
 Spin= Alpha
 Occup=    2.00000
   1    -0.0080774915423989
   2      0.32709661702684
   3      0.24140887607833
   4     -0.21851810966765
   5      0.17160361301484
   6    0.0065121376034338
   7    -0.069428744695794
   8     0.054073917590344
   9    0.0023095211374362
  10     0.013379384870698
  11    -0.0089102946217371
  12    -0.0042056703791317
  13    0.0018305621462795
  14    0.0019360513205688
  15    -0.0013498364505736
  16    -0.028675661930495
  17    -0.030857657564561
  18     0.036248408219377
  19    -0.029208795081954
  20    -0.00057047351625717
  21     0.029828222658522
  22      -0.0219349534433
  23    -0.0032497666531406
  24    -0.00016268320247347
  25    0.00051045376624467
  26    0.00028048641485804
  27    -0.00020127493470523
  28    0.0010364228484564
  29    -0.0068339295585544
  30       0.1143755259123
  31     0.072302652503938
  32      0.14316834828475
  33    -0.039670184349266
  34     -0.17676102950615
  35     0.048548389039032
  36    -0.016541261282854
  37    -0.086914610934757
  38     0.017887114859477
  39    -0.022979718356572
  40    0.0026013009144533
  41    0.0076371219357785
  42    0.00026814842497441
  43    -0.00043217562377535
  44    -0.0040100893452907
  45    -0.0041505779816561
  46    -0.0030993224327664
  47    -0.0008861506883569
  48     0.010431391021302
  49    -0.011241138841178
  50    0.0072931257738007
  51     0.012913076102258
  52    0.0035591138405765
  53    -0.0020191393502276
  54    -0.00078599575974153
  55    7.6121372758385e-08
  56    0.0013594252800388
  57    0.00054930769077316
  58    -0.010304561765901
  59    -0.042000707239014
  60    -0.023117876151278
  61    -0.0094374739684467
  62    0.0047231066770889
  63    -0.028029521022473
  64    -0.021151433311404
  65    0.0045512899683272
  66    -0.0027979237318544
  67    -0.0061403173116166
  68    -0.00083493867835096
  69     0.004968024553882
  70    -0.0013423329366725
  71    -0.012627893640926
  72    -0.0064281688285617
  73    -0.0010491067098729
  74    0.00047935748172125
  75    -0.00060708419507315
  76    -0.00053634285460312
  77    0.0099213479646105
  78     0.024293539379393
  79      0.01421513110395
  80    -0.0062444228253127
  81    -0.012755622196349
  82     0.022641974086586
  83    -0.00038391298376898
  84    -0.0099401466946828
  85    0.00038943213359773
  86    -0.00093725649999217
  87    9.4476950072564e-05
  88    -0.00051686194396334
  89    -0.00087999236081004
  90    -0.00011799452220435
  91    -0.001461800379864
  92    -0.0033660537110426
  93    -0.001917203346421
  94    0.0009774267342837
  95    0.0016388146178225
  96    -0.0020864804259621
  97    0.0018736390599186
  98    0.0013452686528081
  99    0.00023779302697597
 100    -0.00014794948626885
 101    6.0232187969319e-05
 102    7.9098179706391e-05
 103    -6.4168765050125e-05
 104     0.000186114251818
 105    -0.0026145312739458
 106    -0.0031507097001035
 107    -0.0057312038070871
 108    -0.0019586728626982
 109    -0.0011027740300338
 110    -0.0044437667162851
 111    0.0023771925493134
 112    0.0047548662974968
 113    -0.00026099548665312
 114    -0.00087218568663555
 115    1.4763655078704e-05
 116    0.00069986557034907
 117    -0.00047942313005929
 118    0.0016554250256217
 119    0.0024845231903622
 120    -0.00013390176992738
 121    4.1994376759441e-05
 122    3.1004471907821e-05
 123    -0.00012079788734459
 124    -0.00024866421130807
 125    0.0039171595967324
 126    -0.00023603752313494
 127    0.00010653637661876
 128    -0.00037578482170225
 129    0.00011484129595048
 130    -0.0022939217559469
 131    9.7628270417613e-05
 132    8.3187030119217e-05
 133    -0.0002112448917621
 134    -0.00018713713618048
 135    -9.8820606080793e-05
 136    -0.00010991830358081
 137    6.7265657810164e-05
 138    -9.8637578078408e-05
 139    -0.0013391010310986
 140    -0.00032013783486802
 141    -0.00012650773832884
 142    -0.00034642141586882
 143    -0.00073338580953837
 144    1.4581802962042e-05
 145    -0.00040344726593286
 146    2.3188859384074e-05
 147    -7.1871764089827e-06
 148    1.7696860836989e-05
 149    -2.2665571626483e-06
 150    1.2604503052677e-05
 151       0.2718489108253
 152     0.050384377732344
 153    0.0034383642231797
 154    -0.013803990172995
 155     0.025738057683054
 156    -0.021617772232875
 157    -0.031083207141745
 158    0.0036444788683447
 159    -0.003096293867803
 160    -0.001745620070774
 161     0.013162834922748
 162     0.015141499465501
 163    -4.0930544426985e-06
 164    -0.00025790117385059
 165    0.00098345454043632
 166    0.0008154481264991
 167     0.000377922620353
 168    -0.0065405414834466
 169    -0.0012070063893366
 170    -0.0017967172969901
 171    -0.0016550451321295
 172    -0.00092902895997363
 173    -0.0052134922911422
 174    -8.0345694906762e-05
 175    7.3943381835255e-05
 176    -0.00032531425642045
 177    8.901079351889e-05
 178    0.00019511902027951
 179    -0.00058970602711783
 180    0.00094671742020343
 181    -0.00098382481485788
 182    0.00013694058207544
 183    -0.00052819689191078
 184    -0.00038017866249467
 185     8.38372860597e-05
 186    0.0012735955194448
 187    -0.00027865436551848
 188    0.00021299509925164
 189    0.0002528587178128
 190    -0.00022667314521686
 191    -0.00050932421951551
 192     0.002165036782171
 193    5.8790309181692e-05
 194    8.754195114909e-05
 195    0.00031059920039038
 196    0.00090237661811857
 197    0.00017984071845431
 198    -0.00058559466478546
 199    -1.0096186582025e-05
 200    -2.8242256508804e-05
 201    -5.286532365757e-05
 202    5.0970440561794e-05
 203    -0.00012910958279533
 204    0.00012674190850283
 205    -0.002115718097926
 206    -5.9204379782534e-05
 207    -4.8147367870094e-05
 208    -0.00013606691438961
 209    0.0002725320579944
 210    0.0014254921347102
 211    1.2466219222743e-05
 212    1.0013165932908e-05
 213    2.076314352379e-05
 214    1.2765155641909e-05
 215    -1.7461443692633e-06
 216    -3.1432211204782e-05
 217    4.3888936606837e-05
 218    -1.2762916794222e-05
 219    -0.0001440000911435
 220    -0.0057295261210384
 221    0.00017449240158726
 222    -0.0006460516455548
 223    -6.7935996373284e-05
 224    0.00011393319678702
 225    -0.0019767857482542
 226    -1.8179981203445e-05
 227    -0.00018061914314953
 228    -2.2614362948595e-05
