[Molden Format]
made by pyscf v[2.1.0]
[Atoms] (AU)
C   1   6     5.80518952178463     0.50358555603085    -2.01447450495210
O   2   8     7.59006230260208    -0.90749372816926    -2.10619425213399
C   3   6     4.06257668629083     0.88716594424731     0.25526042545400
O   4   8     4.92221121062936    -0.52198770903186     2.35899047472156
C   5   6     1.33654470639501     0.10405776904918    -0.51168492220073
H   6   1     0.89689425433657     0.93209418285884    -2.36575758397362
C   7   6    -0.64932879366180     1.09909683939116     1.38333243551311
O   8   8    -0.00969996419739     0.43834276158024     3.94911375031970
C   9   6    -3.35971006179398     0.18432766564233     0.79610193203064
H   10   1    -4.66165577257433     1.18213140530455     2.06285149374097
C   11   6    -4.19715353225174     0.65517938574345    -1.93554631390739
O   12   8    -6.81065988033421     0.10526341431665    -2.27483908066855
H   13   1     5.22581272007586     1.68491382773245    -3.67455355195552
H   14   1     4.03225036144381     2.94522509253638     0.63780524375420
H   15   1     3.63813663980902    -0.25163782047321     3.65830001755813
O   16   8     1.20169573987217    -2.59733407190845    -0.80186748643669
H   17   1    -0.61314809728088     3.17348700084872     1.28243995772258
H   18   1    -0.91242591335437    -1.12422074821725     4.30347519319814
O   19   8    -3.63012231131474    -2.45370354808476     1.43919651920751
H   20   1    -3.01998643747642    -0.49263081368674    -3.22017268475610
H   21   1    -3.94341055687576     2.65625195302014    -2.42398382532372
H   22   1    -7.07185971499772    -1.58002646891459    -1.60535635788826
H   23   1     2.47305434360030    -3.30624782000391     0.32275766317121
H   24   1    -2.30526934045242    -3.31584195953833     0.48480734753104
[GTO]
1 0
 s    8 1.00
                  6665  0.00069158396281299
                  1000  0.0053257961529341
                   228   0.027060721042034
                 64.71    0.10165684614077
                 21.06     0.2745748236174
                 7.495    0.44829431892377
                 2.797    0.28490261071525
                0.5215   0.015194859206082
 s    8 1.00
                  6665  -0.00029326965268655
                  1000  -0.0023180354739745
                   228  -0.011499786038565
                 64.71  -0.046826727009787
                 21.06   -0.12846616875047
                 7.495   -0.30126627246289
                 2.797   -0.25563070233011
                0.5215      1.093793361012
 s    1 1.00
                0.1596                   1
 p    3 1.00
                 9.439   0.056979251590039
                 2.002    0.31320721150073
                0.5456    0.76037674173753
 p    1 1.00
                0.1517                   1
 d    1 1.00
                  0.55                   1

2 0
 s    8 1.00
                 11720  0.00070964594651845
                  1759  0.0054672722921914
                 400.8   0.027823118610189
                 113.7    0.10474773971146
                 37.03    0.28292084635691
                 13.27    0.44849523869833
                 5.025    0.27081688521277
                 1.013    0.01545029160744
 s    8 1.00
                 11720  -0.00031444341168873
                  1759  -0.0024821376810179
                 400.8  -0.012316355381583
                 113.7  -0.050538917343672
                 37.03   -0.13938490331632
                 13.27   -0.32507749481778
                 5.025   -0.22984830758785
                 1.013     1.0953793467883
 s    1 1.00
                0.3023                   1
 p    3 1.00
                  17.7   0.062679166281506
                 3.854    0.33353656587936
                 1.046    0.74123964163973
 p    1 1.00
                0.2753                   1
 d    1 1.00
                 1.185                   1

3 0
 s    8 1.00
                  6665  0.00069158396281299
                  1000  0.0053257961529341
                   228   0.027060721042034
                 64.71    0.10165684614077
                 21.06     0.2745748236174
                 7.495    0.44829431892377
                 2.797    0.28490261071525
                0.5215   0.015194859206082
 s    8 1.00
                  6665  -0.00029326965268655
                  1000  -0.0023180354739745
                   228  -0.011499786038565
                 64.71  -0.046826727009787
                 21.06   -0.12846616875047
                 7.495   -0.30126627246289
                 2.797   -0.25563070233011
                0.5215      1.093793361012
 s    1 1.00
                0.1596                   1
 p    3 1.00
                 9.439   0.056979251590039
                 2.002    0.31320721150073
                0.5456    0.76037674173753
 p    1 1.00
                0.1517                   1
 d    1 1.00
                  0.55                   1

4 0
 s    8 1.00
                 11720  0.00070964594651845
                  1759  0.0054672722921914
                 400.8   0.027823118610189
                 113.7    0.10474773971146
                 37.03    0.28292084635691
                 13.27    0.44849523869833
                 5.025    0.27081688521277
                 1.013    0.01545029160744
 s    8 1.00
                 11720  -0.00031444341168873
                  1759  -0.0024821376810179
                 400.8  -0.012316355381583
                 113.7  -0.050538917343672
                 37.03   -0.13938490331632
                 13.27   -0.32507749481778
                 5.025   -0.22984830758785
                 1.013     1.0953793467883
 s    1 1.00
                0.3023                   1
 p    3 1.00
                  17.7   0.062679166281506
                 3.854    0.33353656587936
                 1.046    0.74123964163973
 p    1 1.00
                0.2753                   1
 d    1 1.00
                 1.185                   1

5 0
 s    8 1.00
                  6665  0.00069158396281299
                  1000  0.0053257961529341
                   228   0.027060721042034
                 64.71    0.10165684614077
                 21.06     0.2745748236174
                 7.495    0.44829431892377
                 2.797    0.28490261071525
                0.5215   0.015194859206082
 s    8 1.00
                  6665  -0.00029326965268655
                  1000  -0.0023180354739745
                   228  -0.011499786038565
                 64.71  -0.046826727009787
                 21.06   -0.12846616875047
                 7.495   -0.30126627246289
                 2.797   -0.25563070233011
                0.5215      1.093793361012
 s    1 1.00
                0.1596                   1
 p    3 1.00
                 9.439   0.056979251590039
                 2.002    0.31320721150073
                0.5456    0.76037674173753
 p    1 1.00
                0.1517                   1
 d    1 1.00
                  0.55                   1

6 0
 s    3 1.00
                 13.01   0.033498726389998
                 1.962    0.23480080117413
                0.4446     0.8136829578829
 s    1 1.00
                 0.122                   1
 p    1 1.00
                 0.727                   1

7 0
 s    8 1.00
                  6665  0.00069158396281299
                  1000  0.0053257961529341
                   228   0.027060721042034
                 64.71    0.10165684614077
                 21.06     0.2745748236174
                 7.495    0.44829431892377
                 2.797    0.28490261071525
                0.5215   0.015194859206082
 s    8 1.00
                  6665  -0.00029326965268655
                  1000  -0.0023180354739745
                   228  -0.011499786038565
                 64.71  -0.046826727009787
                 21.06   -0.12846616875047
                 7.495   -0.30126627246289
                 2.797   -0.25563070233011
                0.5215      1.093793361012
 s    1 1.00
                0.1596                   1
 p    3 1.00
                 9.439   0.056979251590039
                 2.002    0.31320721150073
                0.5456    0.76037674173753
 p    1 1.00
                0.1517                   1
 d    1 1.00
                  0.55                   1

8 0
 s    8 1.00
                 11720  0.00070964594651845
                  1759  0.0054672722921914
                 400.8   0.027823118610189
                 113.7    0.10474773971146
                 37.03    0.28292084635691
                 13.27    0.44849523869833
                 5.025    0.27081688521277
                 1.013    0.01545029160744
 s    8 1.00
                 11720  -0.00031444341168873
                  1759  -0.0024821376810179
                 400.8  -0.012316355381583
                 113.7  -0.050538917343672
                 37.03   -0.13938490331632
                 13.27   -0.32507749481778
                 5.025   -0.22984830758785
                 1.013     1.0953793467883
 s    1 1.00
                0.3023                   1
 p    3 1.00
                  17.7   0.062679166281506
                 3.854    0.33353656587936
                 1.046    0.74123964163973
 p    1 1.00
                0.2753                   1
 d    1 1.00
                 1.185                   1

9 0
 s    8 1.00
                  6665  0.00069158396281299
                  1000  0.0053257961529341
                   228   0.027060721042034
                 64.71    0.10165684614077
                 21.06     0.2745748236174
                 7.495    0.44829431892377
                 2.797    0.28490261071525
                0.5215   0.015194859206082
 s    8 1.00
                  6665  -0.00029326965268655
                  1000  -0.0023180354739745
                   228  -0.011499786038565
                 64.71  -0.046826727009787
                 21.06   -0.12846616875047
                 7.495   -0.30126627246289
                 2.797   -0.25563070233011
                0.5215      1.093793361012
 s    1 1.00
                0.1596                   1
 p    3 1.00
                 9.439   0.056979251590039
                 2.002    0.31320721150073
                0.5456    0.76037674173753
 p    1 1.00
                0.1517                   1
 d    1 1.00
                  0.55                   1

10 0
 s    3 1.00
                 13.01   0.033498726389998
                 1.962    0.23480080117413
                0.4446     0.8136829578829
 s    1 1.00
                 0.122                   1
 p    1 1.00
                 0.727                   1

11 0
 s    8 1.00
                  6665  0.00069158396281299
                  1000  0.0053257961529341
                   228   0.027060721042034
                 64.71    0.10165684614077
                 21.06     0.2745748236174
                 7.495    0.44829431892377
                 2.797    0.28490261071525
                0.5215   0.015194859206082
 s    8 1.00
                  6665  -0.00029326965268655
                  1000  -0.0023180354739745
                   228  -0.011499786038565
                 64.71  -0.046826727009787
                 21.06   -0.12846616875047
                 7.495   -0.30126627246289
                 2.797   -0.25563070233011
                0.5215      1.093793361012
 s    1 1.00
                0.1596                   1
 p    3 1.00
                 9.439   0.056979251590039
                 2.002    0.31320721150073
                0.5456    0.76037674173753
 p    1 1.00
                0.1517                   1
 d    1 1.00
                  0.55                   1

12 0
 s    8 1.00
                 11720  0.00070964594651845
                  1759  0.0054672722921914
                 400.8   0.027823118610189
                 113.7    0.10474773971146
                 37.03    0.28292084635691
                 13.27    0.44849523869833
                 5.025    0.27081688521277
                 1.013    0.01545029160744
 s    8 1.00
                 11720  -0.00031444341168873
                  1759  -0.0024821376810179
                 400.8  -0.012316355381583
                 113.7  -0.050538917343672
                 37.03   -0.13938490331632
                 13.27   -0.32507749481778
                 5.025   -0.22984830758785
                 1.013     1.0953793467883
 s    1 1.00
                0.3023                   1
 p    3 1.00
                  17.7   0.062679166281506
                 3.854    0.33353656587936
                 1.046    0.74123964163973
 p    1 1.00
                0.2753                   1
 d    1 1.00
                 1.185                   1

13 0
 s    3 1.00
                 13.01   0.033498726389998
                 1.962    0.23480080117413
                0.4446     0.8136829578829
 s    1 1.00
                 0.122                   1
 p    1 1.00
                 0.727                   1

14 0
 s    3 1.00
                 13.01   0.033498726389998
                 1.962    0.23480080117413
                0.4446     0.8136829578829
 s    1 1.00
                 0.122                   1
 p    1 1.00
                 0.727                   1

15 0
 s    3 1.00
                 13.01   0.033498726389998
                 1.962    0.23480080117413
                0.4446     0.8136829578829
 s    1 1.00
                 0.122                   1
 p    1 1.00
                 0.727                   1

16 0
 s    8 1.00
                 11720  0.00070964594651845
                  1759  0.0054672722921914
                 400.8   0.027823118610189
                 113.7    0.10474773971146
                 37.03    0.28292084635691
                 13.27    0.44849523869833
                 5.025    0.27081688521277
                 1.013    0.01545029160744
 s    8 1.00
                 11720  -0.00031444341168873
                  1759  -0.0024821376810179
                 400.8  -0.012316355381583
                 113.7  -0.050538917343672
                 37.03   -0.13938490331632
                 13.27   -0.32507749481778
                 5.025   -0.22984830758785
                 1.013     1.0953793467883
 s    1 1.00
                0.3023                   1
 p    3 1.00
                  17.7   0.062679166281506
                 3.854    0.33353656587936
                 1.046    0.74123964163973
 p    1 1.00
                0.2753                   1
 d    1 1.00
                 1.185                   1

17 0
 s    3 1.00
                 13.01   0.033498726389998
                 1.962    0.23480080117413
                0.4446     0.8136829578829
 s    1 1.00
                 0.122                   1
 p    1 1.00
                 0.727                   1

18 0
 s    3 1.00
                 13.01   0.033498726389998
                 1.962    0.23480080117413
                0.4446     0.8136829578829
 s    1 1.00
                 0.122                   1
 p    1 1.00
                 0.727                   1

19 0
 s    8 1.00
                 11720  0.00070964594651845
                  1759  0.0054672722921914
                 400.8   0.027823118610189
                 113.7    0.10474773971146
                 37.03    0.28292084635691
                 13.27    0.44849523869833
                 5.025    0.27081688521277
                 1.013    0.01545029160744
 s    8 1.00
                 11720  -0.00031444341168873
                  1759  -0.0024821376810179
                 400.8  -0.012316355381583
                 113.7  -0.050538917343672
                 37.03   -0.13938490331632
                 13.27   -0.32507749481778
                 5.025   -0.22984830758785
                 1.013     1.0953793467883
 s    1 1.00
                0.3023                   1
 p    3 1.00
                  17.7   0.062679166281506
                 3.854    0.33353656587936
                 1.046    0.74123964163973
 p    1 1.00
                0.2753                   1
 d    1 1.00
                 1.185                   1

20 0
 s    3 1.00
                 13.01   0.033498726389998
                 1.962    0.23480080117413
                0.4446     0.8136829578829
 s    1 1.00
                 0.122                   1
 p    1 1.00
                 0.727                   1

21 0
 s    3 1.00
                 13.01   0.033498726389998
                 1.962    0.23480080117413
                0.4446     0.8136829578829
 s    1 1.00
                 0.122                   1
 p    1 1.00
                 0.727                   1

22 0
 s    3 1.00
                 13.01   0.033498726389998
                 1.962    0.23480080117413
                0.4446     0.8136829578829
 s    1 1.00
                 0.122                   1
 p    1 1.00
                 0.727                   1

23 0
 s    3 1.00
                 13.01   0.033498726389998
                 1.962    0.23480080117413
                0.4446     0.8136829578829
 s    1 1.00
                 0.122                   1
 p    1 1.00
                 0.727                   1

24 0
 s    3 1.00
                 13.01   0.033498726389998
                 1.962    0.23480080117413
                0.4446     0.8136829578829
 s    1 1.00
                 0.122                   1
 p    1 1.00
                 0.727                   1

[5d]
[7f]
[9g]

[MO]
 Sym= A
 Ene=     -20.5989454
 Spin= Alpha
 Occup=    2.00000
   1    -0.00041755252582221
   2    -0.00038418176182935
   3    0.0050672147075848
   4    -0.00040529006030104
   5    -0.00014705989680063
   6    0.0007321802289806
   7    -0.0034996587545433
   8    0.0041348873667543
   9    0.0017417094833896
  10    -0.00016258582951812
  11    -3.0982134957707e-06
  12    0.00042983670088986
  13    9.0633656637554e-05
  14    -0.00017353558332731
  15    -0.00021960720049761
  16    -0.00046888479283219
  17     0.002048056817347
  18    0.00019544298846186
  19    5.5923651772662e-05
  20    -0.00011130863091677
  21    0.00015173228638078
  22    -8.452104742567e-05
  23    -0.00065936194229161
  24    3.5321101160297e-05
  25    -2.1665410729527e-05
  26    2.1626440387335e-05
  27     3.62599663828e-06
  28    5.4073365790982e-05
  29    -0.0011978300945699
  30    -0.0034489249856054
  31     0.015323301755115
  32    0.00072071672079118
  33    0.00012748378099971
  34    -0.0012130816683712
  35    -0.0080647178754866
  36    -0.013815252581014
  37     0.010422828521548
  38    0.00018975651679212
  39    -0.00025336823470814
  40    -0.00045489162790278
  41    0.00049189685104049
  42    0.00048537117475984
  43    0.00058009983166927
  44    0.00053334802789061
  45    -0.010795125522242
  46    0.0013089528067115
  47    -0.0017661327360817
  48    5.0452261261472e-05
  49    0.0019786666995857
  50    -0.0030284974242869
  51    0.0015088732480636
  52    -9.4854537264595e-05
  53    -0.00037568105118462
  54    0.00015143466005918
  55    0.00023716660601547
  56    2.1754884788627e-05
  57    0.0021460671620457
  58     0.002692971045355
  59    -0.018067535800917
  60    0.00040266389243773
  61    -0.0046957966795451
  62    -0.0002198247927785
  63    -0.014369813270536
  64    0.0054194174397104
  65    -0.026164470397226
  66     0.001833042971195
  67    -0.00037063263639608
  68    -0.0013051579159291
  69    0.00050305118208357
  70    2.8514504935079e-05
  71    0.00022094647791009
  72    -0.0061295264431807
  73    6.8633076142435e-05
  74    0.00014868538162037
  75    -0.00062291448458349
  76    0.0011563429702627
  77     0.024926153094662
  78     0.042044428043536
  79     0.012680016095003
  80    -0.0082861715625589
  81     0.038380971323049
  82     0.027072536679301
  83    -0.010437777835779
  84     0.053567592046875
  85    0.0033273465567306
  86     0.012155188698297
  87     0.015750139260235
  88     0.010187464936111
  89    0.00024781205261559
  90    0.0067773317976783
  91      -0.2274789739337
  92     -0.16295401587847
  93      0.19860837252285
  94      0.35979079006262
  95     -0.10029079099309
  96     0.099623964180493
  97      0.17260183553154
  98    -0.034328115372197
  99     0.010791888962154
 100    -0.00015143890624432
 101    -0.0026603794511795
 102    0.0059030624081341
 103    -0.012847958784986
 104    -0.00020176943326289
 105     0.010778591661032
 106     0.037829086131012
 107     0.016195768546733
 108    0.0016099172267837
 109     0.010096990516794
 110     0.016366079616848
 111    0.0024111474835149
 112     -0.01141482013154
 113    -0.0016030435039864
 114    0.00039572921072265
 115    0.0010462230948442
 116    -8.5866625701356e-05
 117    -0.00078068289667021
 118    0.0037673221495176
 119    0.0028217292671628
 120    0.00033300792502279
 121    -0.00034185448526039
 122    0.00027280305003681
 123    0.00015989819723647
 124    -0.0022750641176882
 125    -0.013993552275622
 126    -0.00081055919146506
 127    0.0016353406292261
 128    -0.0053144487753018
 129     0.003018712277694
 130    0.0075091011716278
 131    -0.0073233366441739
 132    -0.00044485992625143
 133    0.0006545792729258
 134    0.00055768552428998
 135    0.00050880749862586
 136    9.7669066291065e-05
 137    -0.00044778248895956
 138    -0.00023516435495251
 139    0.0056908161326259
 140    0.0011935256363332
 141    -0.00057208473468521
 142    0.0013226095711278
 143    0.0030276177325927
 144    -0.00092953100761193
 145    0.0023372732230987
 146    -6.1174465521674e-05
 147    -6.4712824388979e-05
 148    -6.4640927129584e-05
 149    -7.1006303853051e-05
 150    1.7908537010939e-05
 151    -0.0008657107589964
 152    0.00021599403521182
 153    -1.5212210510632e-06
 154    -0.00018944157525852
 155    9.4504940732401e-05
 156    -0.00063097688459113
 157    0.0040828011952604
 158    0.00024332715307426
 159    5.9472649208143e-05
 160    -0.00046268836177026
 161    0.0044446814259683
 162    0.0032786805938917
 163    -0.00067592201083455
 164    0.0015491489040363
 165    0.00014504744573907
 166    -0.00050168348330297
 167    -0.00075131810921578
 168    0.0064144980452818
 169    -0.00029543073951374
 170    -0.0010053114417697
 171    0.0019909674127352
 172    0.0018385985089833
 173    -0.00083195306763812
 174    0.0038543644549922
 175    -0.0001904959722729
 176    0.00021813943783546
 177    -6.1422506575284e-05
 178    -8.2515301466998e-05
 179    -0.00011991384209597
 180    -0.022578071526096
 181    -0.025007462717543
 182    -0.0014949446602331
 183    -0.0011598213529288
 184    -0.0018951578525147
 185     -0.40761272820221
 186    -0.061301178887147
 187    -0.030875349806324
 188    -0.051442532201986
 189     0.014872709108932
 190    0.0011665475051631
 191    0.0041303308371591
 192    -0.00077706898590249
 193    0.0075157721690599
 194    0.0021392524723992
 195     0.007430045417317
 196    0.0019894812165907
 197    -0.00037114975641296
 198    0.0093888187738299
 199    -0.00085636041793145
 200    -0.0012916515813458
 201    -0.00046374462141475
 202    -0.00064006738549844
 203    -0.00013503396716426
 204    0.00061425306076332
 205    0.00015323728988502
 206    -0.00049830684992994
 207    -7.0315332324885e-05
 208    -0.00026937006105548
 209    -0.00015027602909855
 210    -0.0011726846752113
 211    -0.00026163060001129
 212    -0.00025747031268675
 213    -0.00018024589943523
 214    0.00023054407338077
 215    0.00054875257074412
 216    9.3168789782886e-06
 217    -7.9604803001728e-05
 218    -9.6674392861491e-06
 219    0.0017203989502582
 220    -0.0040540800276715
 221    0.00041729598501666
 222    -0.00017776870773723
 223    0.0005770864165076
 224    0.0028978882479196
 225    -0.0024902913892925
 226    -0.00020535116352019
 227    0.00010069895381894
 228    0.00020179505702282
