[Molden Format]
made by pyscf v[2.1.0]
[Atoms] (AU)
C   1   6     5.80518952178463     0.50358555603085    -2.01447450495210
O   2   8     7.59006230260208    -0.90749372816926    -2.10619425213399
C   3   6     4.06257668629083     0.88716594424731     0.25526042545400
O   4   8     4.92221121062936    -0.52198770903186     2.35899047472156
C   5   6     1.33654470639501     0.10405776904918    -0.51168492220073
H   6   1     0.89689425433657     0.93209418285884    -2.36575758397362
C   7   6    -0.64932879366180     1.09909683939116     1.38333243551311
O   8   8    -0.00969996419739     0.43834276158024     3.94911375031970
C   9   6    -3.35971006179398     0.18432766564233     0.79610193203064
H   10   1    -4.66165577257433     1.18213140530455     2.06285149374097
C   11   6    -4.19715353225174     0.65517938574345    -1.93554631390739
O   12   8    -6.81065988033421     0.10526341431665    -2.27483908066855
H   13   1     5.22581272007586     1.68491382773245    -3.67455355195552
H   14   1     4.03225036144381     2.94522509253638     0.63780524375420
H   15   1     3.63813663980902    -0.25163782047321     3.65830001755813
O   16   8     1.20169573987217    -2.59733407190845    -0.80186748643669
H   17   1    -0.61314809728088     3.17348700084872     1.28243995772258
H   18   1    -0.91242591335437    -1.12422074821725     4.30347519319814
O   19   8    -3.63012231131474    -2.45370354808476     1.43919651920751
H   20   1    -3.01998643747642    -0.49263081368674    -3.22017268475610
H   21   1    -3.94341055687576     2.65625195302014    -2.42398382532372
H   22   1    -7.07185971499772    -1.58002646891459    -1.60535635788826
H   23   1     2.47305434360030    -3.30624782000391     0.32275766317121
H   24   1    -2.30526934045242    -3.31584195953833     0.48480734753104
[GTO]
1 0
 s    8 1.00
                  6665  0.00069158396281299
                  1000  0.0053257961529341
                   228   0.027060721042034
                 64.71    0.10165684614077
                 21.06     0.2745748236174
                 7.495    0.44829431892377
                 2.797    0.28490261071525
                0.5215   0.015194859206082
 s    8 1.00
                  6665  -0.00029326965268655
                  1000  -0.0023180354739745
                   228  -0.011499786038565
                 64.71  -0.046826727009787
                 21.06   -0.12846616875047
                 7.495   -0.30126627246289
                 2.797   -0.25563070233011
                0.5215      1.093793361012
 s    1 1.00
                0.1596                   1
 p    3 1.00
                 9.439   0.056979251590039
                 2.002    0.31320721150073
                0.5456    0.76037674173753
 p    1 1.00
                0.1517                   1
 d    1 1.00
                  0.55                   1

2 0
 s    8 1.00
                 11720  0.00070964594651845
                  1759  0.0054672722921914
                 400.8   0.027823118610189
                 113.7    0.10474773971146
                 37.03    0.28292084635691
                 13.27    0.44849523869833
                 5.025    0.27081688521277
                 1.013    0.01545029160744
 s    8 1.00
                 11720  -0.00031444341168873
                  1759  -0.0024821376810179
                 400.8  -0.012316355381583
                 113.7  -0.050538917343672
                 37.03   -0.13938490331632
                 13.27   -0.32507749481778
                 5.025   -0.22984830758785
                 1.013     1.0953793467883
 s    1 1.00
                0.3023                   1
 p    3 1.00
                  17.7   0.062679166281506
                 3.854    0.33353656587936
                 1.046    0.74123964163973
 p    1 1.00
                0.2753                   1
 d    1 1.00
                 1.185                   1

3 0
 s    8 1.00
                  6665  0.00069158396281299
                  1000  0.0053257961529341
                   228   0.027060721042034
                 64.71    0.10165684614077
                 21.06     0.2745748236174
                 7.495    0.44829431892377
                 2.797    0.28490261071525
                0.5215   0.015194859206082
 s    8 1.00
                  6665  -0.00029326965268655
                  1000  -0.0023180354739745
                   228  -0.011499786038565
                 64.71  -0.046826727009787
                 21.06   -0.12846616875047
                 7.495   -0.30126627246289
                 2.797   -0.25563070233011
                0.5215      1.093793361012
 s    1 1.00
                0.1596                   1
 p    3 1.00
                 9.439   0.056979251590039
                 2.002    0.31320721150073
                0.5456    0.76037674173753
 p    1 1.00
                0.1517                   1
 d    1 1.00
                  0.55                   1

4 0
 s    8 1.00
                 11720  0.00070964594651845
                  1759  0.0054672722921914
                 400.8   0.027823118610189
                 113.7    0.10474773971146
                 37.03    0.28292084635691
                 13.27    0.44849523869833
                 5.025    0.27081688521277
                 1.013    0.01545029160744
 s    8 1.00
                 11720  -0.00031444341168873
                  1759  -0.0024821376810179
                 400.8  -0.012316355381583
                 113.7  -0.050538917343672
                 37.03   -0.13938490331632
                 13.27   -0.32507749481778
                 5.025   -0.22984830758785
                 1.013     1.0953793467883
 s    1 1.00
                0.3023                   1
 p    3 1.00
                  17.7   0.062679166281506
                 3.854    0.33353656587936
                 1.046    0.74123964163973
 p    1 1.00
                0.2753                   1
 d    1 1.00
                 1.185                   1

5 0
 s    8 1.00
                  6665  0.00069158396281299
                  1000  0.0053257961529341
                   228   0.027060721042034
                 64.71    0.10165684614077
                 21.06     0.2745748236174
                 7.495    0.44829431892377
                 2.797    0.28490261071525
                0.5215   0.015194859206082
 s    8 1.00
                  6665  -0.00029326965268655
                  1000  -0.0023180354739745
                   228  -0.011499786038565
                 64.71  -0.046826727009787
                 21.06   -0.12846616875047
                 7.495   -0.30126627246289
                 2.797   -0.25563070233011
                0.5215      1.093793361012
 s    1 1.00
                0.1596                   1
 p    3 1.00
                 9.439   0.056979251590039
                 2.002    0.31320721150073
                0.5456    0.76037674173753
 p    1 1.00
                0.1517                   1
 d    1 1.00
                  0.55                   1

6 0
 s    3 1.00
                 13.01   0.033498726389998
                 1.962    0.23480080117413
                0.4446     0.8136829578829
 s    1 1.00
                 0.122                   1
 p    1 1.00
                 0.727                   1

7 0
 s    8 1.00
                  6665  0.00069158396281299
                  1000  0.0053257961529341
                   228   0.027060721042034
                 64.71    0.10165684614077
                 21.06     0.2745748236174
                 7.495    0.44829431892377
                 2.797    0.28490261071525
                0.5215   0.015194859206082
 s    8 1.00
                  6665  -0.00029326965268655
                  1000  -0.0023180354739745
                   228  -0.011499786038565
                 64.71  -0.046826727009787
                 21.06   -0.12846616875047
                 7.495   -0.30126627246289
                 2.797   -0.25563070233011
                0.5215      1.093793361012
 s    1 1.00
                0.1596                   1
 p    3 1.00
                 9.439   0.056979251590039
                 2.002    0.31320721150073
                0.5456    0.76037674173753
 p    1 1.00
                0.1517                   1
 d    1 1.00
                  0.55                   1

8 0
 s    8 1.00
                 11720  0.00070964594651845
                  1759  0.0054672722921914
                 400.8   0.027823118610189
                 113.7    0.10474773971146
                 37.03    0.28292084635691
                 13.27    0.44849523869833
                 5.025    0.27081688521277
                 1.013    0.01545029160744
 s    8 1.00
                 11720  -0.00031444341168873
                  1759  -0.0024821376810179
                 400.8  -0.012316355381583
                 113.7  -0.050538917343672
                 37.03   -0.13938490331632
                 13.27   -0.32507749481778
                 5.025   -0.22984830758785
                 1.013     1.0953793467883
 s    1 1.00
                0.3023                   1
 p    3 1.00
                  17.7   0.062679166281506
                 3.854    0.33353656587936
                 1.046    0.74123964163973
 p    1 1.00
                0.2753                   1
 d    1 1.00
                 1.185                   1

9 0
 s    8 1.00
                  6665  0.00069158396281299
                  1000  0.0053257961529341
                   228   0.027060721042034
                 64.71    0.10165684614077
                 21.06     0.2745748236174
                 7.495    0.44829431892377
                 2.797    0.28490261071525
                0.5215   0.015194859206082
 s    8 1.00
                  6665  -0.00029326965268655
                  1000  -0.0023180354739745
                   228  -0.011499786038565
                 64.71  -0.046826727009787
                 21.06   -0.12846616875047
                 7.495   -0.30126627246289
                 2.797   -0.25563070233011
                0.5215      1.093793361012
 s    1 1.00
                0.1596                   1
 p    3 1.00
                 9.439   0.056979251590039
                 2.002    0.31320721150073
                0.5456    0.76037674173753
 p    1 1.00
                0.1517                   1
 d    1 1.00
                  0.55                   1

10 0
 s    3 1.00
                 13.01   0.033498726389998
                 1.962    0.23480080117413
                0.4446     0.8136829578829
 s    1 1.00
                 0.122                   1
 p    1 1.00
                 0.727                   1

11 0
 s    8 1.00
                  6665  0.00069158396281299
                  1000  0.0053257961529341
                   228   0.027060721042034
                 64.71    0.10165684614077
                 21.06     0.2745748236174
                 7.495    0.44829431892377
                 2.797    0.28490261071525
                0.5215   0.015194859206082
 s    8 1.00
                  6665  -0.00029326965268655
                  1000  -0.0023180354739745
                   228  -0.011499786038565
                 64.71  -0.046826727009787
                 21.06   -0.12846616875047
                 7.495   -0.30126627246289
                 2.797   -0.25563070233011
                0.5215      1.093793361012
 s    1 1.00
                0.1596                   1
 p    3 1.00
                 9.439   0.056979251590039
                 2.002    0.31320721150073
                0.5456    0.76037674173753
 p    1 1.00
                0.1517                   1
 d    1 1.00
                  0.55                   1

12 0
 s    8 1.00
                 11720  0.00070964594651845
                  1759  0.0054672722921914
                 400.8   0.027823118610189
                 113.7    0.10474773971146
                 37.03    0.28292084635691
                 13.27    0.44849523869833
                 5.025    0.27081688521277
                 1.013    0.01545029160744
 s    8 1.00
                 11720  -0.00031444341168873
                  1759  -0.0024821376810179
                 400.8  -0.012316355381583
                 113.7  -0.050538917343672
                 37.03   -0.13938490331632
                 13.27   -0.32507749481778
                 5.025   -0.22984830758785
                 1.013     1.0953793467883
 s    1 1.00
                0.3023                   1
 p    3 1.00
                  17.7   0.062679166281506
                 3.854    0.33353656587936
                 1.046    0.74123964163973
 p    1 1.00
                0.2753                   1
 d    1 1.00
                 1.185                   1

13 0
 s    3 1.00
                 13.01   0.033498726389998
                 1.962    0.23480080117413
                0.4446     0.8136829578829
 s    1 1.00
                 0.122                   1
 p    1 1.00
                 0.727                   1

14 0
 s    3 1.00
                 13.01   0.033498726389998
                 1.962    0.23480080117413
                0.4446     0.8136829578829
 s    1 1.00
                 0.122                   1
 p    1 1.00
                 0.727                   1

15 0
 s    3 1.00
                 13.01   0.033498726389998
                 1.962    0.23480080117413
                0.4446     0.8136829578829
 s    1 1.00
                 0.122                   1
 p    1 1.00
                 0.727                   1

16 0
 s    8 1.00
                 11720  0.00070964594651845
                  1759  0.0054672722921914
                 400.8   0.027823118610189
                 113.7    0.10474773971146
                 37.03    0.28292084635691
                 13.27    0.44849523869833
                 5.025    0.27081688521277
                 1.013    0.01545029160744
 s    8 1.00
                 11720  -0.00031444341168873
                  1759  -0.0024821376810179
                 400.8  -0.012316355381583
                 113.7  -0.050538917343672
                 37.03   -0.13938490331632
                 13.27   -0.32507749481778
                 5.025   -0.22984830758785
                 1.013     1.0953793467883
 s    1 1.00
                0.3023                   1
 p    3 1.00
                  17.7   0.062679166281506
                 3.854    0.33353656587936
                 1.046    0.74123964163973
 p    1 1.00
                0.2753                   1
 d    1 1.00
                 1.185                   1

17 0
 s    3 1.00
                 13.01   0.033498726389998
                 1.962    0.23480080117413
                0.4446     0.8136829578829
 s    1 1.00
                 0.122                   1
 p    1 1.00
                 0.727                   1

18 0
 s    3 1.00
                 13.01   0.033498726389998
                 1.962    0.23480080117413
                0.4446     0.8136829578829
 s    1 1.00
                 0.122                   1
 p    1 1.00
                 0.727                   1

19 0
 s    8 1.00
                 11720  0.00070964594651845
                  1759  0.0054672722921914
                 400.8   0.027823118610189
                 113.7    0.10474773971146
                 37.03    0.28292084635691
                 13.27    0.44849523869833
                 5.025    0.27081688521277
                 1.013    0.01545029160744
 s    8 1.00
                 11720  -0.00031444341168873
                  1759  -0.0024821376810179
                 400.8  -0.012316355381583
                 113.7  -0.050538917343672
                 37.03   -0.13938490331632
                 13.27   -0.32507749481778
                 5.025   -0.22984830758785
                 1.013     1.0953793467883
 s    1 1.00
                0.3023                   1
 p    3 1.00
                  17.7   0.062679166281506
                 3.854    0.33353656587936
                 1.046    0.74123964163973
 p    1 1.00
                0.2753                   1
 d    1 1.00
                 1.185                   1

20 0
 s    3 1.00
                 13.01   0.033498726389998
                 1.962    0.23480080117413
                0.4446     0.8136829578829
 s    1 1.00
                 0.122                   1
 p    1 1.00
                 0.727                   1

21 0
 s    3 1.00
                 13.01   0.033498726389998
                 1.962    0.23480080117413
                0.4446     0.8136829578829
 s    1 1.00
                 0.122                   1
 p    1 1.00
                 0.727                   1

22 0
 s    3 1.00
                 13.01   0.033498726389998
                 1.962    0.23480080117413
                0.4446     0.8136829578829
 s    1 1.00
                 0.122                   1
 p    1 1.00
                 0.727                   1

23 0
 s    3 1.00
                 13.01   0.033498726389998
                 1.962    0.23480080117413
                0.4446     0.8136829578829
 s    1 1.00
                 0.122                   1
 p    1 1.00
                 0.727                   1

24 0
 s    3 1.00
                 13.01   0.033498726389998
                 1.962    0.23480080117413
                0.4446     0.8136829578829
 s    1 1.00
                 0.122                   1
 p    1 1.00
                 0.727                   1

[5d]
[7f]
[9g]

[MO]
 Sym= A
 Ene=     -20.5989454
 Spin= Alpha
 Occup=    2.00000
   1    -0.0047658540164461
   2    -0.028600725933359
   3    -0.027680188905693
   4     0.040261490628554
   5     0.020503438417785
   6     -0.01330471727435
   7     0.012781845135633
   8    -0.0025434028286889
   9    0.0014852922359088
  10    0.00065184924199103
  11    -0.0034071179902465
  12      0.01336333533009
  13    -0.0076740593093672
  14    -0.010972357299568
  15    0.00010616673887196
  16    0.0064000450491478
  17    0.0061868276331701
  18    -0.023173070706521
  19    -0.0083547406204005
  20    -0.0048424976140264
  21    -0.021574841005101
  22    -0.013229629143758
  23    -0.00057530440646523
  24    -0.00012830414114139
  25    -3.3701135993867e-05
  26    -2.4120278766775e-06
  27    -0.00077911521115694
  28    -0.00027954577443904
  29    -0.0097740026591359
  30      0.19607878338592
  31      0.12797080528228
  32    -0.0018823592292713
  33      0.36295980081626
  34     0.097669186731608
  35    -0.016632452679602
  36      0.15292242140034
  37     0.033156474650314
  38    -0.014077378379308
  39    -0.0016189043221652
  40    0.0060682721316828
  41    -0.018637805445551
  42    3.8891208160087e-05
  43    -0.0031194700763804
  44    -0.014197928040314
  45    0.00070459790536804
  46     0.008664099209419
  47    -0.018074345685937
  48     0.011136134088596
  49    -0.00022393798897689
  50    -0.036503859802324
  51    -0.0020461691628505
  52    -0.0038281068849406
  53    -0.00034998317488828
  54    -0.0044231574499016
  55    -0.0044668825810289
  56    -0.0018871571175378
  57    -0.00074443909379681
  58    -0.023393261331275
  59    -0.063906778232315
  60    -0.024701577605272
  61    0.0046102877709384
  62    -0.0081444914802304
  63    -0.035970458593178
  64     0.012197848294162
  65    -0.0014819606315176
  66    -0.002747535639633
  67    0.0052987648404509
  68    0.0041392898419884
  69    -0.007608840420298
  70      0.01253698458853
  71    -0.0018699628117858
  72    0.0039539870683347
  73    -0.001287055682841
  74    -0.0017708467472989
  75    -0.00064947682428359
  76    -0.00026130198521827
  77    -0.010187083696924
  78    -0.031497993878386
  79    -0.014475203542944
  80    -0.0046750359999658
  81    0.0071569710134402
  82    0.0070193420544476
  83    -0.0034719732917098
  84     0.013324808496216
  85    0.0011446687444936
  86    0.00051327475141808
  87    0.00075122441921853
  88    -0.00047917833872423
  89    0.00091666229545439
  90    0.00087834072815575
  91    0.0023969317545021
  92    -0.0041713335987828
  93    0.00062590884178475
  94    0.00015831809095941
  95    -0.0016874412549691
  96    -0.0027853262911128
  97    -0.0034264637031306
  98    0.0017156431517654
  99    -0.00044907345280792
 100    0.00025205192482186
 101    0.00014758878814843
 102    3.5802079819902e-05
 103    0.00026439577110729
 104    -0.0013555825314026
 105    0.0014251573977367
 106     0.025545594067923
 107    0.0068049902180726
 108    0.0019803519316229
 109    0.0015180125695421
 110     0.012275036234879
 111    0.0019586615556313
 112    0.00029209854185894
 113    -0.00041073377696904
 114    0.00072545085268093
 115    0.0001213344370644
 116    0.00030145291329413
 117    0.00067740044594696
 118    -0.0007845337012697
 119    -0.000600418090792
 120    5.7532228752213e-05
 121    -8.6715436917041e-05
 122    -0.00010821251116859
 123    0.00020423982367829
 124    -0.00017030891827696
 125    -0.005737774091925
 126    -9.559637222662e-05
 127    0.00046502527622298
 128    -0.0001848977968797
 129    -0.0016603533092172
 130    0.00099502321087412
 131    -0.00090573216227423
 132    -0.00014260505858506
 133    0.00018595845075296
 134    7.010649633699e-05
 135    9.6654834316919e-05
 136    0.00012476728074222
 137    -5.5184885998315e-05
 138    0.00010774072876302
 139    0.00068627096139066
 140    0.00056010430328382
 141    4.1487766337642e-05
 142    0.00020378973916762
 143    0.0011981169834227
 144    0.00013791240794914
 145    0.00080729739421904
 146    -7.5378358329929e-06
 147    3.0513440385702e-05
 148    -1.1318605213317e-07
 149    1.3652071456223e-05
 150    1.7925789419307e-05
 151    -0.0062042358887758
 152    0.0077747617424768
 153    0.0020771518690091
 154    -9.8608259375952e-05
 155    -0.00091237484769655
 156      0.43525811401051
 157      0.14007037925345
 158    -0.00061663369000707
 159     -0.03333714556087
 160    -0.0086732972098465
 161    -0.012089202069157
 162    -0.0025730116517966
 163    -0.00047653552969045
 164    -0.001102702189636
 165    0.00065287754922309
 166    -0.00048621712983541
 167    0.0054274001868072
 168     0.022740378623325
 169    0.0036450177821279
 170     0.019203843652906
 171    0.0018893584241637
 172    0.0099649439945963
 173     0.030753994909444
 174    -0.00070524712656725
 175    0.00035808485485458
 176    0.00010451243809117
 177    -0.00017980527114794
 178    3.0833077489078e-05
 179    -0.00050525250126672
 180    -0.0072379072391159
 181    0.0014190205749264
 182    -0.00044330247986762
 183    0.00092434820917848
 184    -0.00012639126249173
 185    -0.00097659287545547
 186    -0.0032836724245679
 187    2.7364134622108e-06
 188    -0.00037446466018215
 189    -0.0004066566958058
 190    -4.8724983945486e-05
 191    -0.00019891386589223
 192    0.00029326324934127
 193    -0.00025677312537105
 194    -0.001580375272674
 195    -0.00040489478003093
 196    -0.00097399945926581
 197    -0.0044819632398124
 198    -0.00056761841326372
 199    1.9134393455111e-05
 200    1.0746816368084e-05
 201    9.5151345587547e-05
 202    7.4211286978977e-05
 203    8.0870480515709e-05
 204    -0.00028832435178038
 205    0.00099800525962375
 206    4.1000466903016e-06
 207    0.00011650445980791
 208    3.6343567005389e-05
 209    8.6689807308253e-05
 210    -4.1676118780889e-05
 211    6.738626649683e-05
 212    -4.0510384441644e-05
 213    -4.6237752726488e-05
 214    -8.7817136497429e-05
 215    0.0012922417279899
 216    0.00012715954018383
 217    4.8063645719787e-05
 218    5.5370459371156e-05
 219      0.00286236017303
 220     0.025289984011738
 221    0.00062255625253313
 222    0.0014003787195985
 223    0.00065224272058916
 224    -0.0010896468431593
 225    -0.0074190113491135
 226    4.4357617268698e-05
 227    -5.5250810535485e-06
 228    -7.1573622985532e-05
