[Molden Format]
made by pyscf v[2.1.0]
[Atoms] (AU)
C   1   6     5.80518952178463     0.50358555603085    -2.01447450495210
O   2   8     7.59006230260208    -0.90749372816926    -2.10619425213399
C   3   6     4.06257668629083     0.88716594424731     0.25526042545400
O   4   8     4.92221121062936    -0.52198770903186     2.35899047472156
C   5   6     1.33654470639501     0.10405776904918    -0.51168492220073
H   6   1     0.89689425433657     0.93209418285884    -2.36575758397362
C   7   6    -0.64932879366180     1.09909683939116     1.38333243551311
O   8   8    -0.00969996419739     0.43834276158024     3.94911375031970
C   9   6    -3.35971006179398     0.18432766564233     0.79610193203064
H   10   1    -4.66165577257433     1.18213140530455     2.06285149374097
C   11   6    -4.19715353225174     0.65517938574345    -1.93554631390739
O   12   8    -6.81065988033421     0.10526341431665    -2.27483908066855
H   13   1     5.22581272007586     1.68491382773245    -3.67455355195552
H   14   1     4.03225036144381     2.94522509253638     0.63780524375420
H   15   1     3.63813663980902    -0.25163782047321     3.65830001755813
O   16   8     1.20169573987217    -2.59733407190845    -0.80186748643669
H   17   1    -0.61314809728088     3.17348700084872     1.28243995772258
H   18   1    -0.91242591335437    -1.12422074821725     4.30347519319814
O   19   8    -3.63012231131474    -2.45370354808476     1.43919651920751
H   20   1    -3.01998643747642    -0.49263081368674    -3.22017268475610
H   21   1    -3.94341055687576     2.65625195302014    -2.42398382532372
H   22   1    -7.07185971499772    -1.58002646891459    -1.60535635788826
H   23   1     2.47305434360030    -3.30624782000391     0.32275766317121
H   24   1    -2.30526934045242    -3.31584195953833     0.48480734753104
[GTO]
1 0
 s    8 1.00
                  6665  0.00069158396281299
                  1000  0.0053257961529341
                   228   0.027060721042034
                 64.71    0.10165684614077
                 21.06     0.2745748236174
                 7.495    0.44829431892377
                 2.797    0.28490261071525
                0.5215   0.015194859206082
 s    8 1.00
                  6665  -0.00029326965268655
                  1000  -0.0023180354739745
                   228  -0.011499786038565
                 64.71  -0.046826727009787
                 21.06   -0.12846616875047
                 7.495   -0.30126627246289
                 2.797   -0.25563070233011
                0.5215      1.093793361012
 s    1 1.00
                0.1596                   1
 p    3 1.00
                 9.439   0.056979251590039
                 2.002    0.31320721150073
                0.5456    0.76037674173753
 p    1 1.00
                0.1517                   1
 d    1 1.00
                  0.55                   1

2 0
 s    8 1.00
                 11720  0.00070964594651845
                  1759  0.0054672722921914
                 400.8   0.027823118610189
                 113.7    0.10474773971146
                 37.03    0.28292084635691
                 13.27    0.44849523869833
                 5.025    0.27081688521277
                 1.013    0.01545029160744
 s    8 1.00
                 11720  -0.00031444341168873
                  1759  -0.0024821376810179
                 400.8  -0.012316355381583
                 113.7  -0.050538917343672
                 37.03   -0.13938490331632
                 13.27   -0.32507749481778
                 5.025   -0.22984830758785
                 1.013     1.0953793467883
 s    1 1.00
                0.3023                   1
 p    3 1.00
                  17.7   0.062679166281506
                 3.854    0.33353656587936
                 1.046    0.74123964163973
 p    1 1.00
                0.2753                   1
 d    1 1.00
                 1.185                   1

3 0
 s    8 1.00
                  6665  0.00069158396281299
                  1000  0.0053257961529341
                   228   0.027060721042034
                 64.71    0.10165684614077
                 21.06     0.2745748236174
                 7.495    0.44829431892377
                 2.797    0.28490261071525
                0.5215   0.015194859206082
 s    8 1.00
                  6665  -0.00029326965268655
                  1000  -0.0023180354739745
                   228  -0.011499786038565
                 64.71  -0.046826727009787
                 21.06   -0.12846616875047
                 7.495   -0.30126627246289
                 2.797   -0.25563070233011
                0.5215      1.093793361012
 s    1 1.00
                0.1596                   1
 p    3 1.00
                 9.439   0.056979251590039
                 2.002    0.31320721150073
                0.5456    0.76037674173753
 p    1 1.00
                0.1517                   1
 d    1 1.00
                  0.55                   1

4 0
 s    8 1.00
                 11720  0.00070964594651845
                  1759  0.0054672722921914
                 400.8   0.027823118610189
                 113.7    0.10474773971146
                 37.03    0.28292084635691
                 13.27    0.44849523869833
                 5.025    0.27081688521277
                 1.013    0.01545029160744
 s    8 1.00
                 11720  -0.00031444341168873
                  1759  -0.0024821376810179
                 400.8  -0.012316355381583
                 113.7  -0.050538917343672
                 37.03   -0.13938490331632
                 13.27   -0.32507749481778
                 5.025   -0.22984830758785
                 1.013     1.0953793467883
 s    1 1.00
                0.3023                   1
 p    3 1.00
                  17.7   0.062679166281506
                 3.854    0.33353656587936
                 1.046    0.74123964163973
 p    1 1.00
                0.2753                   1
 d    1 1.00
                 1.185                   1

5 0
 s    8 1.00
                  6665  0.00069158396281299
                  1000  0.0053257961529341
                   228   0.027060721042034
                 64.71    0.10165684614077
                 21.06     0.2745748236174
                 7.495    0.44829431892377
                 2.797    0.28490261071525
                0.5215   0.015194859206082
 s    8 1.00
                  6665  -0.00029326965268655
                  1000  -0.0023180354739745
                   228  -0.011499786038565
                 64.71  -0.046826727009787
                 21.06   -0.12846616875047
                 7.495   -0.30126627246289
                 2.797   -0.25563070233011
                0.5215      1.093793361012
 s    1 1.00
                0.1596                   1
 p    3 1.00
                 9.439   0.056979251590039
                 2.002    0.31320721150073
                0.5456    0.76037674173753
 p    1 1.00
                0.1517                   1
 d    1 1.00
                  0.55                   1

6 0
 s    3 1.00
                 13.01   0.033498726389998
                 1.962    0.23480080117413
                0.4446     0.8136829578829
 s    1 1.00
                 0.122                   1
 p    1 1.00
                 0.727                   1

7 0
 s    8 1.00
                  6665  0.00069158396281299
                  1000  0.0053257961529341
                   228   0.027060721042034
                 64.71    0.10165684614077
                 21.06     0.2745748236174
                 7.495    0.44829431892377
                 2.797    0.28490261071525
                0.5215   0.015194859206082
 s    8 1.00
                  6665  -0.00029326965268655
                  1000  -0.0023180354739745
                   228  -0.011499786038565
                 64.71  -0.046826727009787
                 21.06   -0.12846616875047
                 7.495   -0.30126627246289
                 2.797   -0.25563070233011
                0.5215      1.093793361012
 s    1 1.00
                0.1596                   1
 p    3 1.00
                 9.439   0.056979251590039
                 2.002    0.31320721150073
                0.5456    0.76037674173753
 p    1 1.00
                0.1517                   1
 d    1 1.00
                  0.55                   1

8 0
 s    8 1.00
                 11720  0.00070964594651845
                  1759  0.0054672722921914
                 400.8   0.027823118610189
                 113.7    0.10474773971146
                 37.03    0.28292084635691
                 13.27    0.44849523869833
                 5.025    0.27081688521277
                 1.013    0.01545029160744
 s    8 1.00
                 11720  -0.00031444341168873
                  1759  -0.0024821376810179
                 400.8  -0.012316355381583
                 113.7  -0.050538917343672
                 37.03   -0.13938490331632
                 13.27   -0.32507749481778
                 5.025   -0.22984830758785
                 1.013     1.0953793467883
 s    1 1.00
                0.3023                   1
 p    3 1.00
                  17.7   0.062679166281506
                 3.854    0.33353656587936
                 1.046    0.74123964163973
 p    1 1.00
                0.2753                   1
 d    1 1.00
                 1.185                   1

9 0
 s    8 1.00
                  6665  0.00069158396281299
                  1000  0.0053257961529341
                   228   0.027060721042034
                 64.71    0.10165684614077
                 21.06     0.2745748236174
                 7.495    0.44829431892377
                 2.797    0.28490261071525
                0.5215   0.015194859206082
 s    8 1.00
                  6665  -0.00029326965268655
                  1000  -0.0023180354739745
                   228  -0.011499786038565
                 64.71  -0.046826727009787
                 21.06   -0.12846616875047
                 7.495   -0.30126627246289
                 2.797   -0.25563070233011
                0.5215      1.093793361012
 s    1 1.00
                0.1596                   1
 p    3 1.00
                 9.439   0.056979251590039
                 2.002    0.31320721150073
                0.5456    0.76037674173753
 p    1 1.00
                0.1517                   1
 d    1 1.00
                  0.55                   1

10 0
 s    3 1.00
                 13.01   0.033498726389998
                 1.962    0.23480080117413
                0.4446     0.8136829578829
 s    1 1.00
                 0.122                   1
 p    1 1.00
                 0.727                   1

11 0
 s    8 1.00
                  6665  0.00069158396281299
                  1000  0.0053257961529341
                   228   0.027060721042034
                 64.71    0.10165684614077
                 21.06     0.2745748236174
                 7.495    0.44829431892377
                 2.797    0.28490261071525
                0.5215   0.015194859206082
 s    8 1.00
                  6665  -0.00029326965268655
                  1000  -0.0023180354739745
                   228  -0.011499786038565
                 64.71  -0.046826727009787
                 21.06   -0.12846616875047
                 7.495   -0.30126627246289
                 2.797   -0.25563070233011
                0.5215      1.093793361012
 s    1 1.00
                0.1596                   1
 p    3 1.00
                 9.439   0.056979251590039
                 2.002    0.31320721150073
                0.5456    0.76037674173753
 p    1 1.00
                0.1517                   1
 d    1 1.00
                  0.55                   1

12 0
 s    8 1.00
                 11720  0.00070964594651845
                  1759  0.0054672722921914
                 400.8   0.027823118610189
                 113.7    0.10474773971146
                 37.03    0.28292084635691
                 13.27    0.44849523869833
                 5.025    0.27081688521277
                 1.013    0.01545029160744
 s    8 1.00
                 11720  -0.00031444341168873
                  1759  -0.0024821376810179
                 400.8  -0.012316355381583
                 113.7  -0.050538917343672
                 37.03   -0.13938490331632
                 13.27   -0.32507749481778
                 5.025   -0.22984830758785
                 1.013     1.0953793467883
 s    1 1.00
                0.3023                   1
 p    3 1.00
                  17.7   0.062679166281506
                 3.854    0.33353656587936
                 1.046    0.74123964163973
 p    1 1.00
                0.2753                   1
 d    1 1.00
                 1.185                   1

13 0
 s    3 1.00
                 13.01   0.033498726389998
                 1.962    0.23480080117413
                0.4446     0.8136829578829
 s    1 1.00
                 0.122                   1
 p    1 1.00
                 0.727                   1

14 0
 s    3 1.00
                 13.01   0.033498726389998
                 1.962    0.23480080117413
                0.4446     0.8136829578829
 s    1 1.00
                 0.122                   1
 p    1 1.00
                 0.727                   1

15 0
 s    3 1.00
                 13.01   0.033498726389998
                 1.962    0.23480080117413
                0.4446     0.8136829578829
 s    1 1.00
                 0.122                   1
 p    1 1.00
                 0.727                   1

16 0
 s    8 1.00
                 11720  0.00070964594651845
                  1759  0.0054672722921914
                 400.8   0.027823118610189
                 113.7    0.10474773971146
                 37.03    0.28292084635691
                 13.27    0.44849523869833
                 5.025    0.27081688521277
                 1.013    0.01545029160744
 s    8 1.00
                 11720  -0.00031444341168873
                  1759  -0.0024821376810179
                 400.8  -0.012316355381583
                 113.7  -0.050538917343672
                 37.03   -0.13938490331632
                 13.27   -0.32507749481778
                 5.025   -0.22984830758785
                 1.013     1.0953793467883
 s    1 1.00
                0.3023                   1
 p    3 1.00
                  17.7   0.062679166281506
                 3.854    0.33353656587936
                 1.046    0.74123964163973
 p    1 1.00
                0.2753                   1
 d    1 1.00
                 1.185                   1

17 0
 s    3 1.00
                 13.01   0.033498726389998
                 1.962    0.23480080117413
                0.4446     0.8136829578829
 s    1 1.00
                 0.122                   1
 p    1 1.00
                 0.727                   1

18 0
 s    3 1.00
                 13.01   0.033498726389998
                 1.962    0.23480080117413
                0.4446     0.8136829578829
 s    1 1.00
                 0.122                   1
 p    1 1.00
                 0.727                   1

19 0
 s    8 1.00
                 11720  0.00070964594651845
                  1759  0.0054672722921914
                 400.8   0.027823118610189
                 113.7    0.10474773971146
                 37.03    0.28292084635691
                 13.27    0.44849523869833
                 5.025    0.27081688521277
                 1.013    0.01545029160744
 s    8 1.00
                 11720  -0.00031444341168873
                  1759  -0.0024821376810179
                 400.8  -0.012316355381583
                 113.7  -0.050538917343672
                 37.03   -0.13938490331632
                 13.27   -0.32507749481778
                 5.025   -0.22984830758785
                 1.013     1.0953793467883
 s    1 1.00
                0.3023                   1
 p    3 1.00
                  17.7   0.062679166281506
                 3.854    0.33353656587936
                 1.046    0.74123964163973
 p    1 1.00
                0.2753                   1
 d    1 1.00
                 1.185                   1

20 0
 s    3 1.00
                 13.01   0.033498726389998
                 1.962    0.23480080117413
                0.4446     0.8136829578829
 s    1 1.00
                 0.122                   1
 p    1 1.00
                 0.727                   1

21 0
 s    3 1.00
                 13.01   0.033498726389998
                 1.962    0.23480080117413
                0.4446     0.8136829578829
 s    1 1.00
                 0.122                   1
 p    1 1.00
                 0.727                   1

22 0
 s    3 1.00
                 13.01   0.033498726389998
                 1.962    0.23480080117413
                0.4446     0.8136829578829
 s    1 1.00
                 0.122                   1
 p    1 1.00
                 0.727                   1

23 0
 s    3 1.00
                 13.01   0.033498726389998
                 1.962    0.23480080117413
                0.4446     0.8136829578829
 s    1 1.00
                 0.122                   1
 p    1 1.00
                 0.727                   1

24 0
 s    3 1.00
                 13.01   0.033498726389998
                 1.962    0.23480080117413
                0.4446     0.8136829578829
 s    1 1.00
                 0.122                   1
 p    1 1.00
                 0.727                   1

[5d]
[7f]
[9g]

[MO]
 Sym= A
 Ene=     -20.5989454
 Spin= Alpha
 Occup=    2.00000
   1    0.00038359671847329
   2    0.00091796425145763
   3    -0.0010315742938775
   4    -0.00033756413425427
   5    0.00017334974497051
   6    0.00038229272098188
   7    0.0013307591735714
   8    0.00013079408962936
   9    -0.00040722562995671
  10    8.6185935984383e-05
  11    -2.4358449891105e-05
  12    -1.7612245658665e-05
  13    -0.00023478585926783
  14    -6.6419064164269e-05
  15    1.2730023606707e-05
  16    -2.8772250608604e-05
  17    -0.0002723209519179
  18    -3.7757496353931e-05
  19    -0.00019209045467415
  20    -0.00015695715375402
  21    -0.00035697764082625
  22    -0.00035961327412547
  23    -0.00014515607046925
  24    -1.4208620061817e-06
  25    -4.6540698528326e-06
  26    4.1625300552983e-06
  27    -5.380672099493e-06
  28    1.6507005716198e-06
  29    0.00043262612849743
  30    0.00084645645576915
  31    -0.0099808431177846
  32    0.00052453246193479
  33    0.00011324496973529
  34    7.8045132011569e-05
  35      0.00563645162593
  36    0.0030289842741043
  37    0.0017440773267445
  38    2.5420487730834e-05
  39    -0.00042702425228343
  40    1.9786490759269e-05
  41    -0.00017898274564565
  42    -7.3122746258757e-05
  43    3.4613290353293e-05
  44    2.0925362736245e-05
  45    5.4400494733159e-05
  46    -1.9547328452319e-05
  47    -0.00018609941196759
  48    0.0001575080123623
  49    -0.00018150313746934
  50    -0.0002514600437732
  51    -0.00016736818842821
  52    2.7054989573547e-05
  53    -1.1920044892196e-05
  54    -3.1790928931283e-05
  55    3.0094756909232e-06
  56    -1.5647110993924e-05
  57    0.0021435430408777
  58    0.0028814231413918
  59    -0.023984074386509
  60    -0.0003491153626121
  61    -0.0012070400738614
  62    0.0033906197717293
  63     0.024548955211503
  64    0.0030263441943835
  65    0.0032071692285093
  66    -7.4510205249373e-06
  67    0.00063531949527019
  68    -0.00010892951149079
  69    -0.00015573683295076
  70    0.00056918199477116
  71    0.00066515832324566
  72    0.0046814784587701
  73    -0.00039514769557454
  74    -0.00010108158558858
  75    0.00041320564528756
  76    -0.0021059114955647
  77    -0.0096818891096102
  78     0.017895990774445
  79    0.0061950789231822
  80    -0.004980186227688
  81    0.0035624435429036
  82    0.0022519234503533
  83    -0.024851848080133
  84    -0.014496211606199
  85    -1.7955317712697e-06
  86    -0.0014931511707732
  87    -0.00054055614866581
  88    -0.0002893074968674
  89    -3.4738149995348e-05
  90    -0.00028840349522606
  91    0.0010554019473591
  92    0.0038053812964112
  93    -0.0009968923014115
  94    0.0013155205417455
  95    -0.002568972492387
  96    -0.0019984553028076
  97    0.0043996014711187
  98    -0.0010001863120849
  99    0.00021947311555348
 100    5.6029185556433e-05
 101    -1.2954697447586e-05
 102    0.00010210744355323
 103    -7.4335594596348e-05
 104    -0.002579554581484
 105    -0.027710649514297
 106    -0.045728897335342
 107    0.0097778412833665
 108    0.0090508188114975
 109      0.02579007828494
 110    -0.013956247213323
 111     0.017931004661646
 112     0.024063933646455
 113    -0.00086863130000055
 114     0.001548276209874
 115     -0.01552235907319
 116    -0.0059558347912981
 117    -0.0036392820755536
 118    -0.012051067170881
 119      -0.0186065037212
 120    0.00098543665575643
 121    -0.0011948508762551
 122    0.0019405037363099
 123    -0.0088007639553109
 124      0.19801726209201
 125      0.10238635298871
 126     0.032583009527442
 127      0.36586981133074
 128    -0.087894736545001
 129      0.05012469957005
 130      0.15237839611054
 131     -0.03164413205462
 132    -0.0085965925243067
 133    -0.000704637234739
 134    -0.0085583537157501
 135    -0.022431145255681
 136    0.0045478946145915
 137    -0.002335104592559
 138    -0.012020532271456
 139    -0.013929686171859
 140    -0.019808651942038
 141    -0.0067202648957543
 142    -0.0028344258982862
 143    0.0021967132105626
 144    -0.016681767468476
 145    0.0011214554276975
 146    -0.003013019922766
 147    -0.0015906057409851
 148    -0.00059699646374734
 149    -0.0016649419464311
 150    0.0083606311727967
 151    0.0002055911351775
 152    -0.00088710504185795
 153    -5.2889598788056e-06
 154    5.4258091476042e-05
 155    -2.6032676015507e-05
 156    0.00014925933367144
 157    -0.0021965424286761
 158    3.5429332092894e-05
 159    6.6375299557755e-05
 160    -3.3591651293154e-05
 161    5.3508819728873e-05
 162    1.1185770307109e-05
 163    -1.0472087628986e-05
 164    5.7303156271557e-05
 165    3.586514059146e-05
 166    -0.00078727197116555
 167    -0.00021406128145259
 168     0.010274810192526
 169    -0.00079335481633905
 170    0.00078945638495593
 171    -0.0006617461773951
 172    -0.0045158845453102
 173    0.0047315257236713
 174    -0.0016268739568525
 175    -3.840047639564e-05
 176    -0.00018276934432677
 177    0.0001809988904531
 178    -0.00026906358973951
 179    -9.646239136243e-06
 180    -0.0065851341047476
 181    0.0099417904183511
 182    9.2122835031104e-05
 183    0.00082773554851789
 184    0.00032900699918714
 185    -0.00096652148920371
 186    -0.0021784989527091
 187    -0.00022688604439843
 188    0.00029580210288448
 189    -0.00041603964070657
 190    -0.0010790427615922
 191    0.0051170563838706
 192       0.0310417552543
 193     0.003777428463001
 194     0.019108502802048
 195    -0.0089983172719551
 196    0.0014588504266017
 197       0.0227498859544
 198    -0.018187517455261
 199    -0.00026711246749446
 200    -0.00029074639213177
 201    0.00056411814585585
 202    0.00052686752670519
 203    0.00032593447610039
 204    -0.025752140671616
 205    -0.039283794858899
 206    -0.0027046849358122
 207     0.011429462700341
 208    -0.0021563157221319
 209      0.43707200385602
 210      0.14488981480804
 211    -0.0024733093254035
 212    -0.032175094820087
 213     0.009730699343749
 214     0.025841865094151
 215     0.039202608807662
 216    -0.0042659686457382
 217    -0.001607998551785
 218    -0.00050371727470256
 219       -0.001289361066
 220    -0.00066467921965012
 221    -5.6204527202103e-06
 222    -0.0002959325694444
 223    -0.00018608876387888
 224    9.8628198454523e-05
 225    0.00089845190471479
 226    0.00080466208684857
 227    0.0014477246283909
 228    -0.00075401625243847
