[Molden Format]
made by pyscf v[2.1.0]
[Atoms] (AU)
C   1   6     5.80518952178463     0.50358555603085    -2.01447450495210
O   2   8     7.59006230260208    -0.90749372816926    -2.10619425213399
C   3   6     4.06257668629083     0.88716594424731     0.25526042545400
O   4   8     4.92221121062936    -0.52198770903186     2.35899047472156
C   5   6     1.33654470639501     0.10405776904918    -0.51168492220073
H   6   1     0.89689425433657     0.93209418285884    -2.36575758397362
C   7   6    -0.64932879366180     1.09909683939116     1.38333243551311
O   8   8    -0.00969996419739     0.43834276158024     3.94911375031970
C   9   6    -3.35971006179398     0.18432766564233     0.79610193203064
H   10   1    -4.66165577257433     1.18213140530455     2.06285149374097
C   11   6    -4.19715353225174     0.65517938574345    -1.93554631390739
O   12   8    -6.81065988033421     0.10526341431665    -2.27483908066855
H   13   1     5.22581272007586     1.68491382773245    -3.67455355195552
H   14   1     4.03225036144381     2.94522509253638     0.63780524375420
H   15   1     3.63813663980902    -0.25163782047321     3.65830001755813
O   16   8     1.20169573987217    -2.59733407190845    -0.80186748643669
H   17   1    -0.61314809728088     3.17348700084872     1.28243995772258
H   18   1    -0.91242591335437    -1.12422074821725     4.30347519319814
O   19   8    -3.63012231131474    -2.45370354808476     1.43919651920751
H   20   1    -3.01998643747642    -0.49263081368674    -3.22017268475610
H   21   1    -3.94341055687576     2.65625195302014    -2.42398382532372
H   22   1    -7.07185971499772    -1.58002646891459    -1.60535635788826
H   23   1     2.47305434360030    -3.30624782000391     0.32275766317121
H   24   1    -2.30526934045242    -3.31584195953833     0.48480734753104
[GTO]
1 0
 s    8 1.00
                  6665  0.00069158396281299
                  1000  0.0053257961529341
                   228   0.027060721042034
                 64.71    0.10165684614077
                 21.06     0.2745748236174
                 7.495    0.44829431892377
                 2.797    0.28490261071525
                0.5215   0.015194859206082
 s    8 1.00
                  6665  -0.00029326965268655
                  1000  -0.0023180354739745
                   228  -0.011499786038565
                 64.71  -0.046826727009787
                 21.06   -0.12846616875047
                 7.495   -0.30126627246289
                 2.797   -0.25563070233011
                0.5215      1.093793361012
 s    1 1.00
                0.1596                   1
 p    3 1.00
                 9.439   0.056979251590039
                 2.002    0.31320721150073
                0.5456    0.76037674173753
 p    1 1.00
                0.1517                   1
 d    1 1.00
                  0.55                   1

2 0
 s    8 1.00
                 11720  0.00070964594651845
                  1759  0.0054672722921914
                 400.8   0.027823118610189
                 113.7    0.10474773971146
                 37.03    0.28292084635691
                 13.27    0.44849523869833
                 5.025    0.27081688521277
                 1.013    0.01545029160744
 s    8 1.00
                 11720  -0.00031444341168873
                  1759  -0.0024821376810179
                 400.8  -0.012316355381583
                 113.7  -0.050538917343672
                 37.03   -0.13938490331632
                 13.27   -0.32507749481778
                 5.025   -0.22984830758785
                 1.013     1.0953793467883
 s    1 1.00
                0.3023                   1
 p    3 1.00
                  17.7   0.062679166281506
                 3.854    0.33353656587936
                 1.046    0.74123964163973
 p    1 1.00
                0.2753                   1
 d    1 1.00
                 1.185                   1

3 0
 s    8 1.00
                  6665  0.00069158396281299
                  1000  0.0053257961529341
                   228   0.027060721042034
                 64.71    0.10165684614077
                 21.06     0.2745748236174
                 7.495    0.44829431892377
                 2.797    0.28490261071525
                0.5215   0.015194859206082
 s    8 1.00
                  6665  -0.00029326965268655
                  1000  -0.0023180354739745
                   228  -0.011499786038565
                 64.71  -0.046826727009787
                 21.06   -0.12846616875047
                 7.495   -0.30126627246289
                 2.797   -0.25563070233011
                0.5215      1.093793361012
 s    1 1.00
                0.1596                   1
 p    3 1.00
                 9.439   0.056979251590039
                 2.002    0.31320721150073
                0.5456    0.76037674173753
 p    1 1.00
                0.1517                   1
 d    1 1.00
                  0.55                   1

4 0
 s    8 1.00
                 11720  0.00070964594651845
                  1759  0.0054672722921914
                 400.8   0.027823118610189
                 113.7    0.10474773971146
                 37.03    0.28292084635691
                 13.27    0.44849523869833
                 5.025    0.27081688521277
                 1.013    0.01545029160744
 s    8 1.00
                 11720  -0.00031444341168873
                  1759  -0.0024821376810179
                 400.8  -0.012316355381583
                 113.7  -0.050538917343672
                 37.03   -0.13938490331632
                 13.27   -0.32507749481778
                 5.025   -0.22984830758785
                 1.013     1.0953793467883
 s    1 1.00
                0.3023                   1
 p    3 1.00
                  17.7   0.062679166281506
                 3.854    0.33353656587936
                 1.046    0.74123964163973
 p    1 1.00
                0.2753                   1
 d    1 1.00
                 1.185                   1

5 0
 s    8 1.00
                  6665  0.00069158396281299
                  1000  0.0053257961529341
                   228   0.027060721042034
                 64.71    0.10165684614077
                 21.06     0.2745748236174
                 7.495    0.44829431892377
                 2.797    0.28490261071525
                0.5215   0.015194859206082
 s    8 1.00
                  6665  -0.00029326965268655
                  1000  -0.0023180354739745
                   228  -0.011499786038565
                 64.71  -0.046826727009787
                 21.06   -0.12846616875047
                 7.495   -0.30126627246289
                 2.797   -0.25563070233011
                0.5215      1.093793361012
 s    1 1.00
                0.1596                   1
 p    3 1.00
                 9.439   0.056979251590039
                 2.002    0.31320721150073
                0.5456    0.76037674173753
 p    1 1.00
                0.1517                   1
 d    1 1.00
                  0.55                   1

6 0
 s    3 1.00
                 13.01   0.033498726389998
                 1.962    0.23480080117413
                0.4446     0.8136829578829
 s    1 1.00
                 0.122                   1
 p    1 1.00
                 0.727                   1

7 0
 s    8 1.00
                  6665  0.00069158396281299
                  1000  0.0053257961529341
                   228   0.027060721042034
                 64.71    0.10165684614077
                 21.06     0.2745748236174
                 7.495    0.44829431892377
                 2.797    0.28490261071525
                0.5215   0.015194859206082
 s    8 1.00
                  6665  -0.00029326965268655
                  1000  -0.0023180354739745
                   228  -0.011499786038565
                 64.71  -0.046826727009787
                 21.06   -0.12846616875047
                 7.495   -0.30126627246289
                 2.797   -0.25563070233011
                0.5215      1.093793361012
 s    1 1.00
                0.1596                   1
 p    3 1.00
                 9.439   0.056979251590039
                 2.002    0.31320721150073
                0.5456    0.76037674173753
 p    1 1.00
                0.1517                   1
 d    1 1.00
                  0.55                   1

8 0
 s    8 1.00
                 11720  0.00070964594651845
                  1759  0.0054672722921914
                 400.8   0.027823118610189
                 113.7    0.10474773971146
                 37.03    0.28292084635691
                 13.27    0.44849523869833
                 5.025    0.27081688521277
                 1.013    0.01545029160744
 s    8 1.00
                 11720  -0.00031444341168873
                  1759  -0.0024821376810179
                 400.8  -0.012316355381583
                 113.7  -0.050538917343672
                 37.03   -0.13938490331632
                 13.27   -0.32507749481778
                 5.025   -0.22984830758785
                 1.013     1.0953793467883
 s    1 1.00
                0.3023                   1
 p    3 1.00
                  17.7   0.062679166281506
                 3.854    0.33353656587936
                 1.046    0.74123964163973
 p    1 1.00
                0.2753                   1
 d    1 1.00
                 1.185                   1

9 0
 s    8 1.00
                  6665  0.00069158396281299
                  1000  0.0053257961529341
                   228   0.027060721042034
                 64.71    0.10165684614077
                 21.06     0.2745748236174
                 7.495    0.44829431892377
                 2.797    0.28490261071525
                0.5215   0.015194859206082
 s    8 1.00
                  6665  -0.00029326965268655
                  1000  -0.0023180354739745
                   228  -0.011499786038565
                 64.71  -0.046826727009787
                 21.06   -0.12846616875047
                 7.495   -0.30126627246289
                 2.797   -0.25563070233011
                0.5215      1.093793361012
 s    1 1.00
                0.1596                   1
 p    3 1.00
                 9.439   0.056979251590039
                 2.002    0.31320721150073
                0.5456    0.76037674173753
 p    1 1.00
                0.1517                   1
 d    1 1.00
                  0.55                   1

10 0
 s    3 1.00
                 13.01   0.033498726389998
                 1.962    0.23480080117413
                0.4446     0.8136829578829
 s    1 1.00
                 0.122                   1
 p    1 1.00
                 0.727                   1

11 0
 s    8 1.00
                  6665  0.00069158396281299
                  1000  0.0053257961529341
                   228   0.027060721042034
                 64.71    0.10165684614077
                 21.06     0.2745748236174
                 7.495    0.44829431892377
                 2.797    0.28490261071525
                0.5215   0.015194859206082
 s    8 1.00
                  6665  -0.00029326965268655
                  1000  -0.0023180354739745
                   228  -0.011499786038565
                 64.71  -0.046826727009787
                 21.06   -0.12846616875047
                 7.495   -0.30126627246289
                 2.797   -0.25563070233011
                0.5215      1.093793361012
 s    1 1.00
                0.1596                   1
 p    3 1.00
                 9.439   0.056979251590039
                 2.002    0.31320721150073
                0.5456    0.76037674173753
 p    1 1.00
                0.1517                   1
 d    1 1.00
                  0.55                   1

12 0
 s    8 1.00
                 11720  0.00070964594651845
                  1759  0.0054672722921914
                 400.8   0.027823118610189
                 113.7    0.10474773971146
                 37.03    0.28292084635691
                 13.27    0.44849523869833
                 5.025    0.27081688521277
                 1.013    0.01545029160744
 s    8 1.00
                 11720  -0.00031444341168873
                  1759  -0.0024821376810179
                 400.8  -0.012316355381583
                 113.7  -0.050538917343672
                 37.03   -0.13938490331632
                 13.27   -0.32507749481778
                 5.025   -0.22984830758785
                 1.013     1.0953793467883
 s    1 1.00
                0.3023                   1
 p    3 1.00
                  17.7   0.062679166281506
                 3.854    0.33353656587936
                 1.046    0.74123964163973
 p    1 1.00
                0.2753                   1
 d    1 1.00
                 1.185                   1

13 0
 s    3 1.00
                 13.01   0.033498726389998
                 1.962    0.23480080117413
                0.4446     0.8136829578829
 s    1 1.00
                 0.122                   1
 p    1 1.00
                 0.727                   1

14 0
 s    3 1.00
                 13.01   0.033498726389998
                 1.962    0.23480080117413
                0.4446     0.8136829578829
 s    1 1.00
                 0.122                   1
 p    1 1.00
                 0.727                   1

15 0
 s    3 1.00
                 13.01   0.033498726389998
                 1.962    0.23480080117413
                0.4446     0.8136829578829
 s    1 1.00
                 0.122                   1
 p    1 1.00
                 0.727                   1

16 0
 s    8 1.00
                 11720  0.00070964594651845
                  1759  0.0054672722921914
                 400.8   0.027823118610189
                 113.7    0.10474773971146
                 37.03    0.28292084635691
                 13.27    0.44849523869833
                 5.025    0.27081688521277
                 1.013    0.01545029160744
 s    8 1.00
                 11720  -0.00031444341168873
                  1759  -0.0024821376810179
                 400.8  -0.012316355381583
                 113.7  -0.050538917343672
                 37.03   -0.13938490331632
                 13.27   -0.32507749481778
                 5.025   -0.22984830758785
                 1.013     1.0953793467883
 s    1 1.00
                0.3023                   1
 p    3 1.00
                  17.7   0.062679166281506
                 3.854    0.33353656587936
                 1.046    0.74123964163973
 p    1 1.00
                0.2753                   1
 d    1 1.00
                 1.185                   1

17 0
 s    3 1.00
                 13.01   0.033498726389998
                 1.962    0.23480080117413
                0.4446     0.8136829578829
 s    1 1.00
                 0.122                   1
 p    1 1.00
                 0.727                   1

18 0
 s    3 1.00
                 13.01   0.033498726389998
                 1.962    0.23480080117413
                0.4446     0.8136829578829
 s    1 1.00
                 0.122                   1
 p    1 1.00
                 0.727                   1

19 0
 s    8 1.00
                 11720  0.00070964594651845
                  1759  0.0054672722921914
                 400.8   0.027823118610189
                 113.7    0.10474773971146
                 37.03    0.28292084635691
                 13.27    0.44849523869833
                 5.025    0.27081688521277
                 1.013    0.01545029160744
 s    8 1.00
                 11720  -0.00031444341168873
                  1759  -0.0024821376810179
                 400.8  -0.012316355381583
                 113.7  -0.050538917343672
                 37.03   -0.13938490331632
                 13.27   -0.32507749481778
                 5.025   -0.22984830758785
                 1.013     1.0953793467883
 s    1 1.00
                0.3023                   1
 p    3 1.00
                  17.7   0.062679166281506
                 3.854    0.33353656587936
                 1.046    0.74123964163973
 p    1 1.00
                0.2753                   1
 d    1 1.00
                 1.185                   1

20 0
 s    3 1.00
                 13.01   0.033498726389998
                 1.962    0.23480080117413
                0.4446     0.8136829578829
 s    1 1.00
                 0.122                   1
 p    1 1.00
                 0.727                   1

21 0
 s    3 1.00
                 13.01   0.033498726389998
                 1.962    0.23480080117413
                0.4446     0.8136829578829
 s    1 1.00
                 0.122                   1
 p    1 1.00
                 0.727                   1

22 0
 s    3 1.00
                 13.01   0.033498726389998
                 1.962    0.23480080117413
                0.4446     0.8136829578829
 s    1 1.00
                 0.122                   1
 p    1 1.00
                 0.727                   1

23 0
 s    3 1.00
                 13.01   0.033498726389998
                 1.962    0.23480080117413
                0.4446     0.8136829578829
 s    1 1.00
                 0.122                   1
 p    1 1.00
                 0.727                   1

24 0
 s    3 1.00
                 13.01   0.033498726389998
                 1.962    0.23480080117413
                0.4446     0.8136829578829
 s    1 1.00
                 0.122                   1
 p    1 1.00
                 0.727                   1

[5d]
[7f]
[9g]

[MO]
 Sym= A
 Ene=     -20.5989454
 Spin= Alpha
 Occup=    2.00000
   1    -0.00085236664129932
   2    -0.0035411973279891
   3    -0.00076395935290453
   4    0.0066799207618498
   5    0.0043959320947743
   6    -0.0025959277786087
   7    -0.0023140369217323
   8    0.0065986573569621
   9    -0.0041187045839278
  10    0.00090547563145253
  11    0.00090930956468689
  12    0.00020755716098782
  13    -0.0016414606209907
  14    0.00082042624350014
  15    -0.00034498349083173
  16    -0.00057890557005554
  17    0.0043871902111113
  18    -0.0011421046917162
  19    -0.0017519876597872
  20    -2.6767187264725e-05
  21    -0.0024997736625759
  22    -0.0024112511922681
  23    0.00047430882180323
  24    -8.4144148002366e-05
  25    0.00011905175403492
  26    -3.0272557896533e-05
  27    -0.00018756033669126
  28    -0.00013333292229945
  29    0.00027736077023939
  30    -0.015011391942997
  31    -0.019968751197195
  32     0.026768878981492
  33    0.0083558709185764
  34     0.010503722323315
  35     0.018431553227054
  36    0.0030447315875195
  37    0.0045752948714525
  38    -0.001811758294207
  39    0.00083967467149914
  40    0.0033680090019179
  41    -0.0022447632147828
  42    0.0099153541865036
  43    6.5063903417841e-05
  44    -0.0022552079330094
  45    -0.0046337969077981
  46     0.003970223972966
  47    -0.0027159182971943
  48    0.0046611052502644
  49     0.001378111611867
  50    -0.0054765808927958
  51    0.0021273737136783
  52    2.7939004339236e-05
  53    -0.00036388402902564
  54    -4.5375401151432e-05
  55    -0.00039864892821236
  56    0.00062625020799766
  57    -0.0050414192620317
  58      0.15342725271835
  59     0.039940786966171
  60    -0.012281371452981
  61     -0.31867526510522
  62    -0.026036964204442
  63    -0.00057216964433342
  64     -0.10196642839701
  65     0.012671434488618
  66    -0.026957673804805
  67    0.00020968325911123
  68    0.0083720284021432
  69    -0.045832485150686
  70    0.0028352171803135
  71    -0.013982344002335
  72    -0.013163982770714
  73    0.00025626936417767
  74    -0.0080914134961655
  75    0.0015692240942217
  76    0.00059576617029505
  77    -0.016067611585592
  78    -0.017363395610632
  79    -0.018003207861922
  80       0.0130167192667
  81     0.020724364766176
  82    -0.018019877417567
  83    0.0091867063257424
  84    0.0080833182225325
  85    -0.001594606727435
  86    0.00089126786606006
  87      0.00676355157449
  88    -0.004853846789702
  89    -0.0068152435054359
  90    3.9731383498767e-05
  91    -0.0013247847197753
  92    -0.0019098497406305
  93    0.00081678052961961
  94    -0.00019099348109003
  95    0.0024319097888202
  96    0.0020411318853519
  97    -0.00099854235739591
  98    -0.0014169313083889
  99    -0.0005390982108141
 100    0.00037304588963194
 101    -0.0001823020801744
 102    -0.00024047062351343
 103    -0.00031982096137636
 104    -1.5971082859545e-05
 105    -0.0045146516997424
 106    -0.0069525398399572
 107    -0.0077886037629146
 108    0.00051790474529207
 109    -9.6512171135675e-05
 110    -0.010504740989969
 111    0.00092618425269468
 112    -0.0038998656373451
 113    0.00059115829814293
 114    0.00083837361324661
 115    0.00065971282182788
 116    -0.0011520410965108
 117    -0.0005211892166421
 118    0.00035562134390171
 119    -0.0032709749342742
 120    -8.6075394148213e-05
 121    -4.0804156809425e-05
 122    7.4765447067318e-05
 123    -0.00053828423761191
 124    -0.00055748448486495
 125    0.0050809978301971
 126    -0.00084139555386748
 127    0.00062515819246014
 128    0.0007584940813357
 129    0.0041467458374205
 130    -0.0048137260603809
 131    -0.004007362194471
 132    -0.00017406814124482
 133    -0.00052277060618739
 134    0.00035579216638771
 135    -0.00047941306800703
 136    -0.00058171353993847
 137    7.2172814154048e-05
 138    -2.8252099152234e-05
 139    -0.00096846970011409
 140    -0.00060262730485708
 141    -0.00023855841061581
 142    -0.00032614720323007
 143    -0.00070625200270442
 144    0.0011416599261962
 145    -0.00053417571107929
 146    8.9181708641128e-06
 147    3.2183864355835e-05
 148    6.6730657331277e-05
 149    7.1268470087325e-05
 150    4.5742334452711e-05
 151    0.00044024173274263
 152    -0.00076519952366919
 153    0.00049245784354593
 154    0.00022283078985328
 155    -0.00031758462092198
 156     0.020289804838585
 157     0.027236432139381
 158    -0.00013429825301099
 159    -0.0002129065784782
 160    -0.0003442956819607
 161    -0.00013677937287021
 162    0.0044323145856809
 163    0.00021152388923372
 164    -0.00043408002829957
 165    0.00024326231651015
 166    -0.007840852980638
 167      0.20608320768274
 168      0.20005664026063
 169     0.016077905975713
 170      0.42457153389226
 171     0.039899854235158
 172     0.021708358273769
 173      0.27373706294445
 174      0.03684722906938
 175    -0.009078288516276
 176    0.0002989110757172
 177     0.010658490202385
 178    -0.016876556866058
 179    0.0074684293343381
 180     0.020430637883073
 181     0.024948924412602
 182    0.00074365637016347
 183    -6.0735068124671e-05
 184    5.3313751893541e-06
 185    0.00085429450280611
 186    0.0036767496829996
 187    0.00036279118592076
 188    -0.00031657433303025
 189    -0.00015254279441189
 190    -0.00090818834058359
 191    -0.0010730388684116
 192     0.012065502937505
 193    0.00091256815476147
 194    0.00063237440859699
 195    -0.00029505903597993
 196    0.0041845072980921
 197    -0.0022755937701747
 198    -0.0013669208236688
 199    4.6902780609405e-05
 200    -6.103134786848e-05
 201    -8.5151522909569e-05
 202    0.00023620975747919
 203    -3.4598775757316e-05
 204    -0.00096706710810437
 205    -0.009922746244957
 206    0.00069603106703989
 207    -0.00054461587205767
 208    -0.00037298149407082
 209    0.00075221773779954
 210    0.0023808668090917
 211    -0.00036707010444549
 212    6.9405361738247e-05
 213    0.00022327207884088
 214    0.0002615788584728
 215    0.0013414623121389
 216    -2.5956211603756e-05
 217    0.0002289944666576
 218    -0.00021483980124572
 219    -0.051198009303463
 220    -0.043049375331921
 221    0.0033820971403446
 222     0.012410570304845
 223    0.0031592809955451
 224    -0.0042216447537457
 225    -0.018641841688346
 226    -0.00042799867846671
 227    -0.000113126213165
 228    -3.1658506793425e-05
