[Molden Format]
made by pyscf v[2.1.0]
[Atoms] (AU)
C   1   6     5.80518952178463     0.50358555603085    -2.01447450495210
O   2   8     7.59006230260208    -0.90749372816926    -2.10619425213399
C   3   6     4.06257668629083     0.88716594424731     0.25526042545400
O   4   8     4.92221121062936    -0.52198770903186     2.35899047472156
C   5   6     1.33654470639501     0.10405776904918    -0.51168492220073
H   6   1     0.89689425433657     0.93209418285884    -2.36575758397362
C   7   6    -0.64932879366180     1.09909683939116     1.38333243551311
O   8   8    -0.00969996419739     0.43834276158024     3.94911375031970
C   9   6    -3.35971006179398     0.18432766564233     0.79610193203064
H   10   1    -4.66165577257433     1.18213140530455     2.06285149374097
C   11   6    -4.19715353225174     0.65517938574345    -1.93554631390739
O   12   8    -6.81065988033421     0.10526341431665    -2.27483908066855
H   13   1     5.22581272007586     1.68491382773245    -3.67455355195552
H   14   1     4.03225036144381     2.94522509253638     0.63780524375420
H   15   1     3.63813663980902    -0.25163782047321     3.65830001755813
O   16   8     1.20169573987217    -2.59733407190845    -0.80186748643669
H   17   1    -0.61314809728088     3.17348700084872     1.28243995772258
H   18   1    -0.91242591335437    -1.12422074821725     4.30347519319814
O   19   8    -3.63012231131474    -2.45370354808476     1.43919651920751
H   20   1    -3.01998643747642    -0.49263081368674    -3.22017268475610
H   21   1    -3.94341055687576     2.65625195302014    -2.42398382532372
H   22   1    -7.07185971499772    -1.58002646891459    -1.60535635788826
H   23   1     2.47305434360030    -3.30624782000391     0.32275766317121
H   24   1    -2.30526934045242    -3.31584195953833     0.48480734753104
[GTO]
1 0
 s    8 1.00
                  6665  0.00069158396281299
                  1000  0.0053257961529341
                   228   0.027060721042034
                 64.71    0.10165684614077
                 21.06     0.2745748236174
                 7.495    0.44829431892377
                 2.797    0.28490261071525
                0.5215   0.015194859206082
 s    8 1.00
                  6665  -0.00029326965268655
                  1000  -0.0023180354739745
                   228  -0.011499786038565
                 64.71  -0.046826727009787
                 21.06   -0.12846616875047
                 7.495   -0.30126627246289
                 2.797   -0.25563070233011
                0.5215      1.093793361012
 s    1 1.00
                0.1596                   1
 p    3 1.00
                 9.439   0.056979251590039
                 2.002    0.31320721150073
                0.5456    0.76037674173753
 p    1 1.00
                0.1517                   1
 d    1 1.00
                  0.55                   1

2 0
 s    8 1.00
                 11720  0.00070964594651845
                  1759  0.0054672722921914
                 400.8   0.027823118610189
                 113.7    0.10474773971146
                 37.03    0.28292084635691
                 13.27    0.44849523869833
                 5.025    0.27081688521277
                 1.013    0.01545029160744
 s    8 1.00
                 11720  -0.00031444341168873
                  1759  -0.0024821376810179
                 400.8  -0.012316355381583
                 113.7  -0.050538917343672
                 37.03   -0.13938490331632
                 13.27   -0.32507749481778
                 5.025   -0.22984830758785
                 1.013     1.0953793467883
 s    1 1.00
                0.3023                   1
 p    3 1.00
                  17.7   0.062679166281506
                 3.854    0.33353656587936
                 1.046    0.74123964163973
 p    1 1.00
                0.2753                   1
 d    1 1.00
                 1.185                   1

3 0
 s    8 1.00
                  6665  0.00069158396281299
                  1000  0.0053257961529341
                   228   0.027060721042034
                 64.71    0.10165684614077
                 21.06     0.2745748236174
                 7.495    0.44829431892377
                 2.797    0.28490261071525
                0.5215   0.015194859206082
 s    8 1.00
                  6665  -0.00029326965268655
                  1000  -0.0023180354739745
                   228  -0.011499786038565
                 64.71  -0.046826727009787
                 21.06   -0.12846616875047
                 7.495   -0.30126627246289
                 2.797   -0.25563070233011
                0.5215      1.093793361012
 s    1 1.00
                0.1596                   1
 p    3 1.00
                 9.439   0.056979251590039
                 2.002    0.31320721150073
                0.5456    0.76037674173753
 p    1 1.00
                0.1517                   1
 d    1 1.00
                  0.55                   1

4 0
 s    8 1.00
                 11720  0.00070964594651845
                  1759  0.0054672722921914
                 400.8   0.027823118610189
                 113.7    0.10474773971146
                 37.03    0.28292084635691
                 13.27    0.44849523869833
                 5.025    0.27081688521277
                 1.013    0.01545029160744
 s    8 1.00
                 11720  -0.00031444341168873
                  1759  -0.0024821376810179
                 400.8  -0.012316355381583
                 113.7  -0.050538917343672
                 37.03   -0.13938490331632
                 13.27   -0.32507749481778
                 5.025   -0.22984830758785
                 1.013     1.0953793467883
 s    1 1.00
                0.3023                   1
 p    3 1.00
                  17.7   0.062679166281506
                 3.854    0.33353656587936
                 1.046    0.74123964163973
 p    1 1.00
                0.2753                   1
 d    1 1.00
                 1.185                   1

5 0
 s    8 1.00
                  6665  0.00069158396281299
                  1000  0.0053257961529341
                   228   0.027060721042034
                 64.71    0.10165684614077
                 21.06     0.2745748236174
                 7.495    0.44829431892377
                 2.797    0.28490261071525
                0.5215   0.015194859206082
 s    8 1.00
                  6665  -0.00029326965268655
                  1000  -0.0023180354739745
                   228  -0.011499786038565
                 64.71  -0.046826727009787
                 21.06   -0.12846616875047
                 7.495   -0.30126627246289
                 2.797   -0.25563070233011
                0.5215      1.093793361012
 s    1 1.00
                0.1596                   1
 p    3 1.00
                 9.439   0.056979251590039
                 2.002    0.31320721150073
                0.5456    0.76037674173753
 p    1 1.00
                0.1517                   1
 d    1 1.00
                  0.55                   1

6 0
 s    3 1.00
                 13.01   0.033498726389998
                 1.962    0.23480080117413
                0.4446     0.8136829578829
 s    1 1.00
                 0.122                   1
 p    1 1.00
                 0.727                   1

7 0
 s    8 1.00
                  6665  0.00069158396281299
                  1000  0.0053257961529341
                   228   0.027060721042034
                 64.71    0.10165684614077
                 21.06     0.2745748236174
                 7.495    0.44829431892377
                 2.797    0.28490261071525
                0.5215   0.015194859206082
 s    8 1.00
                  6665  -0.00029326965268655
                  1000  -0.0023180354739745
                   228  -0.011499786038565
                 64.71  -0.046826727009787
                 21.06   -0.12846616875047
                 7.495   -0.30126627246289
                 2.797   -0.25563070233011
                0.5215      1.093793361012
 s    1 1.00
                0.1596                   1
 p    3 1.00
                 9.439   0.056979251590039
                 2.002    0.31320721150073
                0.5456    0.76037674173753
 p    1 1.00
                0.1517                   1
 d    1 1.00
                  0.55                   1

8 0
 s    8 1.00
                 11720  0.00070964594651845
                  1759  0.0054672722921914
                 400.8   0.027823118610189
                 113.7    0.10474773971146
                 37.03    0.28292084635691
                 13.27    0.44849523869833
                 5.025    0.27081688521277
                 1.013    0.01545029160744
 s    8 1.00
                 11720  -0.00031444341168873
                  1759  -0.0024821376810179
                 400.8  -0.012316355381583
                 113.7  -0.050538917343672
                 37.03   -0.13938490331632
                 13.27   -0.32507749481778
                 5.025   -0.22984830758785
                 1.013     1.0953793467883
 s    1 1.00
                0.3023                   1
 p    3 1.00
                  17.7   0.062679166281506
                 3.854    0.33353656587936
                 1.046    0.74123964163973
 p    1 1.00
                0.2753                   1
 d    1 1.00
                 1.185                   1

9 0
 s    8 1.00
                  6665  0.00069158396281299
                  1000  0.0053257961529341
                   228   0.027060721042034
                 64.71    0.10165684614077
                 21.06     0.2745748236174
                 7.495    0.44829431892377
                 2.797    0.28490261071525
                0.5215   0.015194859206082
 s    8 1.00
                  6665  -0.00029326965268655
                  1000  -0.0023180354739745
                   228  -0.011499786038565
                 64.71  -0.046826727009787
                 21.06   -0.12846616875047
                 7.495   -0.30126627246289
                 2.797   -0.25563070233011
                0.5215      1.093793361012
 s    1 1.00
                0.1596                   1
 p    3 1.00
                 9.439   0.056979251590039
                 2.002    0.31320721150073
                0.5456    0.76037674173753
 p    1 1.00
                0.1517                   1
 d    1 1.00
                  0.55                   1

10 0
 s    3 1.00
                 13.01   0.033498726389998
                 1.962    0.23480080117413
                0.4446     0.8136829578829
 s    1 1.00
                 0.122                   1
 p    1 1.00
                 0.727                   1

11 0
 s    8 1.00
                  6665  0.00069158396281299
                  1000  0.0053257961529341
                   228   0.027060721042034
                 64.71    0.10165684614077
                 21.06     0.2745748236174
                 7.495    0.44829431892377
                 2.797    0.28490261071525
                0.5215   0.015194859206082
 s    8 1.00
                  6665  -0.00029326965268655
                  1000  -0.0023180354739745
                   228  -0.011499786038565
                 64.71  -0.046826727009787
                 21.06   -0.12846616875047
                 7.495   -0.30126627246289
                 2.797   -0.25563070233011
                0.5215      1.093793361012
 s    1 1.00
                0.1596                   1
 p    3 1.00
                 9.439   0.056979251590039
                 2.002    0.31320721150073
                0.5456    0.76037674173753
 p    1 1.00
                0.1517                   1
 d    1 1.00
                  0.55                   1

12 0
 s    8 1.00
                 11720  0.00070964594651845
                  1759  0.0054672722921914
                 400.8   0.027823118610189
                 113.7    0.10474773971146
                 37.03    0.28292084635691
                 13.27    0.44849523869833
                 5.025    0.27081688521277
                 1.013    0.01545029160744
 s    8 1.00
                 11720  -0.00031444341168873
                  1759  -0.0024821376810179
                 400.8  -0.012316355381583
                 113.7  -0.050538917343672
                 37.03   -0.13938490331632
                 13.27   -0.32507749481778
                 5.025   -0.22984830758785
                 1.013     1.0953793467883
 s    1 1.00
                0.3023                   1
 p    3 1.00
                  17.7   0.062679166281506
                 3.854    0.33353656587936
                 1.046    0.74123964163973
 p    1 1.00
                0.2753                   1
 d    1 1.00
                 1.185                   1

13 0
 s    3 1.00
                 13.01   0.033498726389998
                 1.962    0.23480080117413
                0.4446     0.8136829578829
 s    1 1.00
                 0.122                   1
 p    1 1.00
                 0.727                   1

14 0
 s    3 1.00
                 13.01   0.033498726389998
                 1.962    0.23480080117413
                0.4446     0.8136829578829
 s    1 1.00
                 0.122                   1
 p    1 1.00
                 0.727                   1

15 0
 s    3 1.00
                 13.01   0.033498726389998
                 1.962    0.23480080117413
                0.4446     0.8136829578829
 s    1 1.00
                 0.122                   1
 p    1 1.00
                 0.727                   1

16 0
 s    8 1.00
                 11720  0.00070964594651845
                  1759  0.0054672722921914
                 400.8   0.027823118610189
                 113.7    0.10474773971146
                 37.03    0.28292084635691
                 13.27    0.44849523869833
                 5.025    0.27081688521277
                 1.013    0.01545029160744
 s    8 1.00
                 11720  -0.00031444341168873
                  1759  -0.0024821376810179
                 400.8  -0.012316355381583
                 113.7  -0.050538917343672
                 37.03   -0.13938490331632
                 13.27   -0.32507749481778
                 5.025   -0.22984830758785
                 1.013     1.0953793467883
 s    1 1.00
                0.3023                   1
 p    3 1.00
                  17.7   0.062679166281506
                 3.854    0.33353656587936
                 1.046    0.74123964163973
 p    1 1.00
                0.2753                   1
 d    1 1.00
                 1.185                   1

17 0
 s    3 1.00
                 13.01   0.033498726389998
                 1.962    0.23480080117413
                0.4446     0.8136829578829
 s    1 1.00
                 0.122                   1
 p    1 1.00
                 0.727                   1

18 0
 s    3 1.00
                 13.01   0.033498726389998
                 1.962    0.23480080117413
                0.4446     0.8136829578829
 s    1 1.00
                 0.122                   1
 p    1 1.00
                 0.727                   1

19 0
 s    8 1.00
                 11720  0.00070964594651845
                  1759  0.0054672722921914
                 400.8   0.027823118610189
                 113.7    0.10474773971146
                 37.03    0.28292084635691
                 13.27    0.44849523869833
                 5.025    0.27081688521277
                 1.013    0.01545029160744
 s    8 1.00
                 11720  -0.00031444341168873
                  1759  -0.0024821376810179
                 400.8  -0.012316355381583
                 113.7  -0.050538917343672
                 37.03   -0.13938490331632
                 13.27   -0.32507749481778
                 5.025   -0.22984830758785
                 1.013     1.0953793467883
 s    1 1.00
                0.3023                   1
 p    3 1.00
                  17.7   0.062679166281506
                 3.854    0.33353656587936
                 1.046    0.74123964163973
 p    1 1.00
                0.2753                   1
 d    1 1.00
                 1.185                   1

20 0
 s    3 1.00
                 13.01   0.033498726389998
                 1.962    0.23480080117413
                0.4446     0.8136829578829
 s    1 1.00
                 0.122                   1
 p    1 1.00
                 0.727                   1

21 0
 s    3 1.00
                 13.01   0.033498726389998
                 1.962    0.23480080117413
                0.4446     0.8136829578829
 s    1 1.00
                 0.122                   1
 p    1 1.00
                 0.727                   1

22 0
 s    3 1.00
                 13.01   0.033498726389998
                 1.962    0.23480080117413
                0.4446     0.8136829578829
 s    1 1.00
                 0.122                   1
 p    1 1.00
                 0.727                   1

23 0
 s    3 1.00
                 13.01   0.033498726389998
                 1.962    0.23480080117413
                0.4446     0.8136829578829
 s    1 1.00
                 0.122                   1
 p    1 1.00
                 0.727                   1

24 0
 s    3 1.00
                 13.01   0.033498726389998
                 1.962    0.23480080117413
                0.4446     0.8136829578829
 s    1 1.00
                 0.122                   1
 p    1 1.00
                 0.727                   1

[5d]
[7f]
[9g]

[MO]
 Sym= A
 Ene=     -20.5989454
 Spin= Alpha
 Occup=    2.00000
   1    0.0023839659963564
   2    0.0045917162994515
   3    -0.039222308408207
   4    -0.00098534359747945
   5    -0.0005340754431116
   6    0.0014063543048365
   7    -0.0011736033237038
   8     0.020551836969166
   9    -0.016411939436772
  10    0.0011510858746878
  11    0.00063778010986143
  12    0.00073731056047728
  13    -0.00083487023213387
  14    0.00014469710869422
  15     -0.00184482256815
  16    -0.0024164365590692
  17     0.021688907593617
  18    -0.0043971476678274
  19    -0.0038705393017649
  20    -0.0023350930251316
  21    -0.010054097485937
  22    -0.0019164050946706
  23    -2.8523534808229e-05
  24    -0.00015463478916556
  25    -3.8327893737365e-06
  26    1.8953581658669e-05
  27    0.00039915599361189
  28    -0.00015990673987074
  29    -0.0014725159819318
  30    -0.008185777515404
  31     -0.01071676196521
  32     0.014430845718082
  33     0.002860475983232
  34    -0.0037604096693622
  35     0.036997250112753
  36    -0.0099601784041843
  37    -0.014721220707019
  38    0.00048876827955762
  39    0.0011549470263061
  40    0.0013563211017192
  41    -0.0010664148672462
  42    0.0017573064976897
  43    -0.0007352321699304
  44    -0.004649762893917
  45    -0.0063310060639646
  46    0.0067453398921196
  47    0.0050200067827902
  48    0.0027041096756414
  49    -0.0004616147281339
  50    0.0028853490583805
  51    0.00038810376263351
  52    -0.00032543675282051
  53    0.00034403698906175
  54    0.00050855450870888
  55    -0.00017872716654642
  56    0.00098411267005214
  57    -0.000927572006988
  58      0.03488420600342
  59     0.058472681867054
  60    -0.002014040426487
  61    -0.057006559337112
  62    -0.0088489431260854
  63    -0.0091887903603636
  64    0.0054612335779378
  65     0.036274432636897
  66    -0.0019146951301133
  67    0.0023239198084356
  68    -0.026331016842781
  69    -0.0037763451910885
  70    -0.00057107765679739
  71     0.045824796920151
  72     0.045204423061622
  73    0.00058157373914179
  74    -0.0040102546646892
  75    -0.00060093940263269
  76    0.00051067217927872
  77    -0.015695925193006
  78    -0.059748174317467
  79    -0.024094671079797
  80     0.012193455515192
  81     0.016908330407673
  82    -0.051658117542535
  83    -0.00055873592287015
  84     0.026911590239795
  85    -0.00053421202933766
  86    0.00055816569401788
  87    0.00065873847810227
  88    -0.0026435163106678
  89    0.00015377438392517
  90    4.1641980528531e-05
  91    -0.0011173658003374
  92    -0.0032155306945117
  93    0.00068520826754012
  94    0.0042526843608885
  95    0.0008144177639632
  96     0.004710658947246
  97     0.003095965419015
  98    -0.0074404058214445
  99    -0.00019996725857527
 100    0.00017069830613715
 101    0.00022712559949741
 102    -0.00016917916970963
 103    -0.00068905682239392
 104    0.00038509348100223
 105    -0.0011881114272204
 106    -0.0082633514102338
 107    -0.0011330224433799
 108    0.00039065087847242
 109    -0.0010549881688042
 110    -0.021134465071341
 111    0.0035231126276763
 112    -0.017566940059213
 113    0.0005865347037478
 114    0.00034321446013645
 115    0.00021983636126633
 116    -0.0010735417156556
 117    -0.00021687451449251
 118    -0.0022044164416076
 119    -0.0074048792191459
 120    -4.9141319620604e-05
 121    -0.00013707104820879
 122    0.00068009582379783
 123    -0.0010787418989001
 124    8.0167344409592e-05
 125    0.0064437433355637
 126    0.0023228438683536
 127    -0.0042555029781983
 128    -9.0283960413553e-05
 129     0.010601414182388
 130    -0.0099180451309181
 131    -0.018519028189287
 132    -0.00089653711929471
 133    -0.00084704498220757
 134    0.00067746381810395
 135    0.00011421859294437
 136    -0.00066694462292902
 137    7.0238563710683e-05
 138    0.00010867560278017
 139    0.00036176371651821
 140    -0.00055694840782786
 141    0.00054219261075597
 142    3.3885629347597e-05
 143    -0.00047720679329044
 144    0.0025354012028675
 145    0.00088980845513411
 146    5.6141150711765e-05
 147    2.7181621208063e-05
 148    8.6534180213654e-05
 149    0.00010565080605235
 150    -7.2605288268316e-05
 151    0.00010708162879145
 152    -0.0087310434692227
 153    -0.00064958817106989
 154    -0.00062506333422016
 155    -5.8575484071884e-05
 156    0.0044439094179745
 157     0.011851664852898
 158    0.00045125523757812
 159    0.00049502531250933
 160    0.00046344687261209
 161    -0.0040529631771198
 162     0.012714677471641
 163    -3.8203985827177e-05
 164    4.617670380017e-05
 165    -0.00040832416991574
 166      0.00223869435129
 167     -0.29810226787126
 168     -0.38473059396732
 169    0.0071644226957897
 170      0.15592442890934
 171      0.47757024770258
 172    -0.0043217984862348
 173      0.12606590612455
 174      0.36055971042912
 175    0.0079812959680733
 176    0.0084487031063714
 177    0.0095566751714645
 178    -0.0037462042474316
 179    0.0014662689313205
 180     0.011727916063823
 181     0.023436736515201
 182    -0.00083590442027624
 183    0.00030384616353454
 184    0.00085008032039393
 185    -0.0036254853003881
 186      0.01240263552475
 187    0.00098486243512818
 188    4.3632303486273e-06
 189    -0.0012396511613386
 190    -0.0015959481826064
 191    -0.0015962315670947
 192     0.012307385013427
 193    0.0011835990579344
 194    -0.00045426146576594
 195    -0.0035796707590192
 196    0.0052469913205853
 197    -0.0014964264011718
 198    -0.0025850745103062
 199    -8.1382032156326e-05
 200    -0.00023007773846994
 201    -4.0926977929756e-05
 202    0.00060207707563743
 203    0.00013377882094166
 204    0.0025722924016634
 205    -0.031421490414622
 206    -0.00018799889715425
 207    -0.00012151546614583
 208    -0.0012596282879051
 209    -0.0030028355629689
 210    0.0016036595108854
 211    -0.00023478627704618
 212    0.00026121776310752
 213    0.00050023836357693
 214    -0.00052421388564511
 215     0.002765526740989
 216    0.00014847385043479
 217    0.0002560483644716
 218    -0.0002727329712328
 219     0.075625205013696
 220     0.015598397451795
 221    -0.0076239302755195
 222     0.010974783504608
 223     0.016060394017364
 224    0.0013657717089445
 225     -0.01456125150847
 226    -0.0011877677547296
 227    -7.0174678667468e-05
 228    0.0020257594211446
