[Molden Format]
made by pyscf v[2.1.0]
[Atoms] (AU)
O   1   8    -2.80655197436596    -0.21679800580895     0.00000000000000
H   2   1    -3.53079329105777     1.44053526913547     0.00000000000000
H   3   1    -1.00879882028348     0.07654795995953     0.00000000000000
O   4   8     2.67673781990801     0.21025931135538     0.00000000000000
H   5   1     3.29991847318420    -0.70665470154483    -1.43347253877620
H   6   1     3.29991847318420    -0.70665470154483     1.43347253877620
[GTO]
1 0
 s    8 1.00
                 11720  0.00070964594651845
                  1759  0.0054672722921914
                 400.8   0.027823118610189
                 113.7    0.10474773971146
                 37.03    0.28292084635691
                 13.27    0.44849523869833
                 5.025    0.27081688521277
                 1.013    0.01545029160744
 s    8 1.00
                 11720  -0.00031444341168873
                  1759  -0.0024821376810179
                 400.8  -0.012316355381583
                 113.7  -0.050538917343672
                 37.03   -0.13938490331632
                 13.27   -0.32507749481778
                 5.025   -0.22984830758785
                 1.013     1.0953793467883
 s    1 1.00
                0.3023                   1
 p    3 1.00
                  17.7   0.062679166281506
                 3.854    0.33353656587936
                 1.046    0.74123964163973
 p    1 1.00
                0.2753                   1
 d    1 1.00
                 1.185                   1

2 0
 s    3 1.00
                 13.01   0.033498726389998
                 1.962    0.23480080117413
                0.4446     0.8136829578829
 s    1 1.00
                 0.122                   1
 p    1 1.00
                 0.727                   1

3 0
 s    3 1.00
                 13.01   0.033498726389998
                 1.962    0.23480080117413
                0.4446     0.8136829578829
 s    1 1.00
                 0.122                   1
 p    1 1.00
                 0.727                   1

4 0
 s    8 1.00
                 11720  0.00070964594651845
                  1759  0.0054672722921914
                 400.8   0.027823118610189
                 113.7    0.10474773971146
                 37.03    0.28292084635691
                 13.27    0.44849523869833
                 5.025    0.27081688521277
                 1.013    0.01545029160744
 s    8 1.00
                 11720  -0.00031444341168873
                  1759  -0.0024821376810179
                 400.8  -0.012316355381583
                 113.7  -0.050538917343672
                 37.03   -0.13938490331632
                 13.27   -0.32507749481778
                 5.025   -0.22984830758785
                 1.013     1.0953793467883
 s    1 1.00
                0.3023                   1
 p    3 1.00
                  17.7   0.062679166281506
                 3.854    0.33353656587936
                 1.046    0.74123964163973
 p    1 1.00
                0.2753                   1
 d    1 1.00
                 1.185                   1

5 0
 s    3 1.00
                 13.01   0.033498726389998
                 1.962    0.23480080117413
                0.4446     0.8136829578829
 s    1 1.00
                 0.122                   1
 p    1 1.00
                 0.727                   1

6 0
 s    3 1.00
                 13.01   0.033498726389998
                 1.962    0.23480080117413
                0.4446     0.8136829578829
 s    1 1.00
                 0.122                   1
 p    1 1.00
                 0.727                   1

[5d]
[7f]
[9g]

[MO]
 Sym= A
 Ene=    -20.58413943
 Spin= Alpha
 Occup=    2.00000
   1    0.00010182978414331
   2    0.00046656917806855
   3    0.00044158265464102
   4    0.00090890163445053
   5    -5.0466370070263e-05
   6    4.5008421238608e-17
   7    0.00047027301428649
   8    -3.7236671530303e-06
   9    -1.163961847308e-16
  10    1.267746914151e-06
  11    -1.4351323275338e-18
  12    -3.995350715488e-18
  13    -1.877577625618e-05
  14    -9.9971606211718e-06
  15    0.00035438062019628
  16    -6.4050656319268e-05
  17    -5.9545725400095e-05
  18    7.2599349229493e-06
  19    -7.8308970115165e-18
  20    -0.0010772090324531
  21    -0.00015628849667876
  22    0.00038964586689526
  23    -3.5795769992091e-05
  24    -6.2832992553214e-18
  25       1.0045893890007
  26     0.016371364855612
  27     0.017088012543073
  28    0.0069278341617148
  29    -0.010255025438973
  30    -2.0818342718995e-17
  31     0.004308376697154
  32    -0.0061977804631642
  33    3.5410383468509e-17
  34    9.1480361111968e-05
  35    8.280455484353e-18
  36    7.1347632643272e-18
  37    6.874252561213e-05
  38    0.00015445450191793
  39    -0.026084403704905
  40    -0.017189930026654
  41    0.00034368177612698
  42    -0.00051494911053892
  43    -0.0014140096351387
  44    -0.026084403704905
  45    -0.017189930026654
  46    0.00034368177612698
  47    -0.00051494911053899
  48    0.0014140096351387
 Sym= A
 Ene=     -20.5161062
 Spin= Alpha
 Occup=    2.00000
   1     0.003447382041066
   2     0.010710827689819
   3    0.0018631011786483
   4      0.01099938440546
   5    -0.00029488008969758
   6    7.4223237249433e-17
   7    0.0022808088643965
   8    0.00037077796975364
   9    1.0601721283112e-16
  10    0.00030210678966353
  11    -6.3075581576915e-17
  12    8.7807364675012e-17
  13    -0.00063285594803595
  14    -0.00043645927039124
  15    0.0040381443891568
  16    -0.0035048794226744
  17    -0.0012664119072226
  18    -0.00013141924819207
  19    2.0694429085955e-17
  20     -0.02785396673097
  21    -0.00045693651567018
  22    0.0042103637476443
  23    -0.00074754029119089
  24    1.0121984883324e-17
  25     0.030582876837229
  26      0.62716292366334
  27      0.64786215831632
  28     0.043320383646659
  29     -0.06509659894535
  30    -3.6132203246749e-16
  31    -0.0020863242529674
  32    0.0031097209574238
  33    2.1869934279811e-15
  34     0.002538204681163
  35    1.897940622803e-16
  36    -2.3670771932921e-16
  37    0.0020785971122005
  38    0.0026399679627143
  39     -0.10217089624435
  40     -0.17516826004391
  41    -0.010892809331518
  42     0.016764749352907
  43     0.022502002770376
  44     -0.10217089624435
  45     -0.17516826004391
  46    -0.010892809331517
  47     0.016764749352906
  48    -0.022502002770375
 Sym= A
 Ene=    -1.369042825
 Spin= Alpha
 Occup=    2.00000
   1    -0.013653762860971
   2    -0.038717792248096
   3    0.0021982629386169
   4    -0.028940072615989
   5    -0.0035028177432457
   6    1.3103441613847e-16
   7    0.00020248304075126
   8    -0.0023760336505702
   9    1.3223858078589e-18
  10    -0.00093845080947509
  11    1.4908623110581e-16
  12    -7.7002688370329e-18
  13      0.00174028179639
  14    0.0016319205921529
  15    -0.010555305930903
  16    0.0090772551140078
  17    0.0027163538678664
  18    0.00035267331763349
  19    3.6797431788567e-17
  20      0.10617323165363
  21     0.015109799914019
  22    0.00091884349585247
  23    0.0015639015582492
  24    -3.4237494196488e-17
  25     0.023470380986104
  26     0.063142198855777
  27    -0.049322405507778
  28      0.66142308105569
  29     -0.02229537543962
  30    -8.9232826631056e-17
  31      0.47409019564474
  32     0.028342746397252
  33    1.6607698357224e-17
  34    -0.0018169226646143
  35    -4.5764545094283e-18
  36    2.0927858666152e-16
  37    0.0084194982636077
  38    -0.013239047109562
  39      0.01129871577915
  40    -0.058685599255981
  41     0.020322084525736
  42     0.014228178692401
  43     0.022082029037505
  44     0.011298715779149
  45     -0.05868559925598
  46     0.020322084525736
  47     0.014228178692401
  48    -0.022082029037505
 Sym= A
 Ene=    -1.303695905
 Spin= Alpha
 Occup=    2.00000
   1    0.0037683652026876
   2     0.010924070667041
   3    6.3689488385971e-05
   4    0.0087393647163278
   5    -0.0011718567527427
   6    3.6300182019359e-17
   7    -0.00032631050102235
   8    0.0031816620254025
   9    -9.8866475581768e-17
  10    3.6132620740645e-06
  11    3.2703116404429e-17
  12    3.2886652157203e-17
  13    -0.00019262279833113
  14    -0.00012018157324575
  15    -0.0024114447840459
  16    -0.0019369936819614
  17    0.0001828433273199
  18    0.00053735721727247
  19    1.7178231223475e-17
  20    -0.025753467192796
  21    -0.0006265386677835
  22    0.00010765454305769
  23    0.0024945962636357
  24    -3.5650264873807e-17
  25    -0.031420303830678
  26    -0.088571252173359
  27     0.052949203433998
  28    -0.025417636821533
  29      0.66321568364071
  30    -2.0658244208394e-16
  31     0.027756353185408
  32      0.45749372689541
  33    -1.1867134583427e-15
  34    0.0039011023244714
  35    -9.3830310540613e-17
  36    3.9322928736462e-16
  37     0.014350300415328
  38    0.0072795056659282
  39    -0.023335165267749
  40       0.0943596198501
  41     0.012759991488653
  42     0.010637233478312
  43    -0.029634206664235
  44    -0.023335165267747
  45       0.0943596198501
  46     0.012759991488653
  47     0.010637233478312
  48     0.029634206664233
 Sym= A
 Ene=   -0.7297209874
 Spin= Alpha
 Occup=    2.00000
   1    1.2022967046716e-18
   2    4.6152023056791e-17
   3    1.0742997124261e-16
   4    -8.0485807881134e-17
   5    5.9241987363248e-18
   6    0.00074009297983858
   7    4.0071413909861e-16
   8    -1.5823780680613e-16
   9    0.00094086038519336
  10    2.0478100032091e-17
  11    -0.00028030968173036
  12    -4.4971649306408e-05
  13    2.1095010259547e-17
  14    -1.6128236029002e-17
  15    -3.7770224599505e-17
  16    4.6171081310201e-16
  17    -1.3867779663272e-16
  18    -9.8767638334433e-17
  19    -0.00035757837635221
  20    -5.2359145697524e-17
  21    -7.450938027516e-16
  22    1.1972661370524e-17
  23    1.0278219329395e-16
  24    0.0027143668305193
  25    7.4997312413908e-16
  26    1.6740675802198e-15
  27    -5.0878906478231e-15
  28    -4.8393514201301e-18
  29    3.0150408989721e-16
  30      0.79367766065786
  31    -1.3660636646673e-15
  32    1.3738805243016e-15
  33       0.4301350784339
  34    -3.2177958682919e-16
  35    0.0099784591103731
  36    -0.016002379982668
  37    2.5514847702148e-17
  38    2.7754115512086e-16
  39     0.076473975792614
  40      0.20173298121882
  41     0.017616166054586
  42     -0.02555354098795
  43    -0.024533259279408
  44    -0.076473975792611
  45     -0.20173298121882
  46    -0.017616166054586
  47      0.02555354098795
  48     -0.02453325927941
 Sym= A
 Ene=   -0.6744277875
 Spin= Alpha
 Occup=    2.00000
   1    0.0021705051785617
   2    0.0072328423921103
   3    0.0062940404608161
   4    0.0047558827530935
   5    0.00060938215648646
   6     0.001162263888458
   7    0.0031565807946383
   8    0.00082928771331021
   9    0.00057385599994094
  10    0.00016049977635728
  11    -0.00032352603813259
  12    -5.1403749099499e-05
  13    -0.00030863177153092
  14    -0.00019525082376172
  15    0.0017611270440863
  16    0.0026508560827769
  17    0.00017538241846854
  18    0.0002060109250816
  19    -0.00016828037614943
  20    -0.033821622626382
  21    -0.025223968761185
  22    -0.0031801845654664
  23    5.3196181908786e-05
  24    0.00094024042205814
  25     -0.03393816521245
  26     -0.14891100951953
  27     -0.22798494366171
  28    -0.074691215112775
  29      0.10135143782324
  30      0.20498908488076
  31    -0.059320793572359
  32     0.084677538154997
  33        0.161372046305
  34    0.00053491794247906
  35    -0.0071624415745018
  36     0.011193212221944
  37    -0.0018116998427344
  38    -0.0040219781701153
  39      0.87888040898579
  40      0.55829768867294
  41    -0.0079703481508288
  42     0.011264373240174
  43     0.022043397374288
  44    -0.097139407101407
  45    -0.067870665742459
  46    0.0023810588299556
  47    -0.0036144202844208
  48    -0.013324533378223
 Sym= A
 Ene=   -0.6003905728
 Spin= Alpha
 Occup=    2.00000
   1    0.0021705051785617
   2    0.0072328423921103
   3    0.0062940404608162
   4    0.0047558827530933
   5    0.00060938215648659
   6    -0.0011622638884581
   7    0.0031565807946386
   8    0.0008292877133101
   9    -0.00057385599994105
  10    0.00016049977635731
  11    0.00032352603813258
  12    5.1403749099522e-05
  13    -0.00030863177153093
  14    -0.00019525082376175
  15    0.0017611270440863
  16    0.0026508560827773
  17    0.00017538241846843
  18    0.00020601092508149
  19    0.00016828037614941
  20    -0.033821622626382
  21    -0.025223968761186
  22    -0.0031801845654665
  23    5.3196181908908e-05
  24    -0.00094024042205816
  25    -0.033938165212449
  26     -0.14891100951953
  27     -0.22798494366172
  28    -0.074691215112775
  29      0.10135143782324
  30     -0.20498908488076
  31     -0.05932079357236
  32     0.084677538154998
  33       -0.161372046305
  34    0.0005349179424788
  35    0.0071624415745021
  36    -0.011193212221944
  37    -0.0018116998427345
  38    -0.0040219781701151
  39    -0.097139407101405
  40    -0.067870665742457
  41    0.0023810588299551
  42     -0.00361442028442
  43     0.013324533378225
  44      0.87888040898579
  45      0.55829768867294
  46    -0.0079703481508286
  47     0.011264373240174
  48    -0.022043397374289
