[Molden Format]
made by pyscf v[2.1.0]
[Atoms] (AU)
O   1   8    -2.80655197436596    -0.21679800580895     0.00000000000000
H   2   1    -3.53079329105777     1.44053526913547     0.00000000000000
H   3   1    -1.00879882028348     0.07654795995953     0.00000000000000
O   4   8     2.67673781990801     0.21025931135538     0.00000000000000
H   5   1     3.29991847318420    -0.70665470154483    -1.43347253877620
H   6   1     3.29991847318420    -0.70665470154483     1.43347253877620
[GTO]
1 0
 s    8 1.00
                 11720  0.00070964594651845
                  1759  0.0054672722921914
                 400.8   0.027823118610189
                 113.7    0.10474773971146
                 37.03    0.28292084635691
                 13.27    0.44849523869833
                 5.025    0.27081688521277
                 1.013    0.01545029160744
 s    8 1.00
                 11720  -0.00031444341168873
                  1759  -0.0024821376810179
                 400.8  -0.012316355381583
                 113.7  -0.050538917343672
                 37.03   -0.13938490331632
                 13.27   -0.32507749481778
                 5.025   -0.22984830758785
                 1.013     1.0953793467883
 s    1 1.00
                0.3023                   1
 p    3 1.00
                  17.7   0.062679166281506
                 3.854    0.33353656587936
                 1.046    0.74123964163973
 p    1 1.00
                0.2753                   1
 d    1 1.00
                 1.185                   1

2 0
 s    3 1.00
                 13.01   0.033498726389998
                 1.962    0.23480080117413
                0.4446     0.8136829578829
 s    1 1.00
                 0.122                   1
 p    1 1.00
                 0.727                   1

3 0
 s    3 1.00
                 13.01   0.033498726389998
                 1.962    0.23480080117413
                0.4446     0.8136829578829
 s    1 1.00
                 0.122                   1
 p    1 1.00
                 0.727                   1

4 0
 s    8 1.00
                 11720  0.00070964594651845
                  1759  0.0054672722921914
                 400.8   0.027823118610189
                 113.7    0.10474773971146
                 37.03    0.28292084635691
                 13.27    0.44849523869833
                 5.025    0.27081688521277
                 1.013    0.01545029160744
 s    8 1.00
                 11720  -0.00031444341168873
                  1759  -0.0024821376810179
                 400.8  -0.012316355381583
                 113.7  -0.050538917343672
                 37.03   -0.13938490331632
                 13.27   -0.32507749481778
                 5.025   -0.22984830758785
                 1.013     1.0953793467883
 s    1 1.00
                0.3023                   1
 p    3 1.00
                  17.7   0.062679166281506
                 3.854    0.33353656587936
                 1.046    0.74123964163973
 p    1 1.00
                0.2753                   1
 d    1 1.00
                 1.185                   1

5 0
 s    3 1.00
                 13.01   0.033498726389998
                 1.962    0.23480080117413
                0.4446     0.8136829578829
 s    1 1.00
                 0.122                   1
 p    1 1.00
                 0.727                   1

6 0
 s    3 1.00
                 13.01   0.033498726389998
                 1.962    0.23480080117413
                0.4446     0.8136829578829
 s    1 1.00
                 0.122                   1
 p    1 1.00
                 0.727                   1

[5d]
[7f]
[9g]

[MO]
 Sym= A
 Ene=    -20.58413943
 Spin= Alpha
 Occup=    2.00000
   1       1.0047535909948
   2     0.016805382733874
   3      0.01671894567179
   4    0.0060875959268391
   5      0.01096419073213
   6    6.9955567986071e-19
   7    0.0032048700804236
   8    0.0067284050381402
   9     -7.5665380136e-18
  10    0.00011989222109263
  11    -6.8964317844167e-19
  12    2.5130335203013e-19
  13    6.0689767381596e-05
  14    -0.00014173687266362
  15    -0.026180216987353
  16    -0.017525898247334
  17    -0.00096261590143748
  18     0.001299535107333
  19    -4.5398653099071e-19
  20    -0.026765537264436
  21    -0.016833865477507
  22    0.0013285260177741
  23    -0.00017435271501141
  24    1.9099673465223e-19
  25    0.00010864082681774
  26    0.0010349414481379
  27    0.00074515779898873
  28    -0.0040063421615487
  29    0.00065836660408617
  30    5.7844059682767e-18
  31    -0.0020038496787092
  32    0.00035433625053927
  33    1.3088221554089e-17
  34    3.0164207163238e-05
  35    -7.8078305774373e-19
  36    1.6574390047775e-18
  37    -3.3824504809577e-05
  38    -7.6578956592606e-05
  39    0.0018170716213787
  40    0.00085217596332644
  41    1.943291813567e-05
  42    -2.5219112075835e-05
  43    -1.1758993117179e-05
  44    0.0018170716213787
  45    0.00085217596332647
  46    1.9432918135672e-05
  47    -2.521911207584e-05
  48    1.1758993117183e-05
 Sym= A
 Ene=     -20.5161062
 Spin= Alpha
 Occup=    2.00000
   1     0.031203271640325
   2      0.62909323283576
   3      0.64751262484923
   4     0.040986595452838
   5     0.071216769211248
   6    1.2349152740413e-16
   7    -0.0040064987904535
   8    -0.0041785120392354
   9    2.0884902115996e-17
  10     0.001628345605253
  11    -1.6860740519383e-17
  12    -1.3899801905204e-18
  13    0.0020701605521066
  14    -0.0033547289000957
  15     -0.10425094321177
  16      -0.1751460449624
  17     0.010011729079362
  18    -0.028453751299406
  19    -2.0029494477681e-18
  20     -0.11440335660306
  21     -0.17182592064862
  22    -0.031938787155334
  23    -0.0074313212011153
  24    1.2866261851896e-17
  25    0.0011506639711505
  26    0.0095019247112207
  27    0.0080564810226254
  28    -0.033453871701682
  29    0.0069353543424305
  30    1.3864259037153e-18
  31    -0.017349712034893
  32     0.003424924199328
  33    6.0384840772275e-17
  34    0.00023904982572998
  35    5.8383249281201e-18
  36    -4.1002762907069e-18
  37    -0.00015354208081777
  38    -0.00062626543538373
  39     0.015137346917592
  40    0.0078685466003015
  41    0.0007402708419561
  42    6.3956784448871e-05
  43    1.0196541090662e-06
  44     0.015137346917592
  45    0.0078685466003013
  46    0.0007402708419561
  47    6.3956784448843e-05
  48    -1.0196541090555e-06
 Sym= A
 Ene=    -1.369042825
 Spin= Alpha
 Occup=    2.00000
   1     0.017757288258105
   2     0.051933231970219
   3    -0.023124209956936
   4      0.76615436332129
   5    -0.051307343247999
   6    -9.5863594453101e-17
   7      0.43958347050389
   8    0.0046790078284373
   9    -1.1644163361454e-16
  10    -0.0053158549454719
  11    4.6399927456845e-17
  12    -1.5191680301004e-16
  13     0.010284949124492
  14     0.013994899429244
  15     0.085728648814815
  16      0.12237116088062
  17     0.010609472649011
  18     0.027158795638351
  19    -7.4286104894335e-17
  20    -0.061543003022892
  21     -0.24772943226061
  22    -0.049561540743624
  23    -0.0050493188848756
  24    1.3821786525472e-16
  25     0.003001893290263
  26     0.013811880367021
  27    0.0071937426668063
  28    -0.036335218857674
  29    0.0065784492018386
  30    1.8521533421754e-16
  31    -0.017011817462042
  32    0.0029279293041141
  33    -6.4648204298728e-16
  34    -0.00070183385270586
  35    -2.6890646733044e-16
  36    -2.0838260463295e-16
  37    0.0015605299383812
  38    -0.0010408964869332
  39     0.014409744275491
  40     0.011939194520303
  41    0.0025833180832182
  42    0.0005214079514014
  43    0.00021564435977025
  44     0.014409744275492
  45     0.011939194520303
  46    0.0025833180832181
  47    0.00052140795140141
  48    -0.00021564435977046
 Sym= A
 Ene=    -1.303695905
 Spin= Alpha
 Occup=    2.00000
   1     0.034477832618382
   2      0.09810857575184
   3    -0.051957842736016
   4    -0.052386510907952
   5      0.70136081051217
   6    -3.4334030332024e-16
   7      0.01040321546011
   8      0.44126003011133
   9    2.6009362041925e-16
  10     -0.01051687174012
  11    6.0553853577649e-17
  12    8.1616261586971e-17
  13      -0.0130671540762
  14    0.0037492762760727
  15    -0.013757756361987
  16     -0.18910392762663
  17     0.030515805429427
  18    -0.030525715460426
  19    9.5999592113358e-17
  20     0.067660638836879
  21    -0.024342978052729
  22    -0.0081495210341831
  23     0.023009335248087
  24    -7.1623392821185e-17
  25    -0.00051725736405345
  26    -0.0015415221808194
  27    -0.0015755470783389
  28    -0.00023722463599348
  29    -0.0014490607307716
  30    -1.0490206935706e-16
  31    -0.0077468138925748
  32    0.0048774675150047
  33    -3.9935468813915e-17
  34    -0.00028921546030361
  35    9.7983743647497e-17
  36    1.4525201670177e-16
  37    0.00070550564025783
  38    -0.000191724062267
  39    0.0046916372768153
  40    0.0034929258455565
  41     0.001179797306826
  42    -0.00016337711021132
  43     0.001430915386896
  44    0.0046916372768147
  45    0.0034929258455579
  46     0.001179797306826
  47    -0.00016337711021117
  48    -0.001430915386896
 Sym= A
 Ene=   -0.7297209874
 Spin= Alpha
 Occup=    2.00000
   1    1.1949119045307e-16
   2    3.3480748584342e-16
   3    -7.7059024877677e-16
   4    -4.9652597197297e-16
   5    -5.0446622092621e-17
   6      0.62719708997586
   7    5.2861921516902e-16
   8    -4.4231193400293e-16
   9      0.50067060129777
  10    -1.3527711288486e-16
  11    0.0082000239547067
  12     0.015545701884451
  13     5.20187442639e-17
  14    -4.789424042696e-17
  15    4.2403399007249e-16
  16    1.5706283267526e-16
  17    -1.1338251318572e-17
  18    -2.6881110972702e-16
  19     0.030823175486335
  20    -1.6635224938254e-16
  21    2.2742983283696e-16
  22    -2.2871386341416e-16
  23    -5.6440948242164e-17
  24     0.029149383353135
  25    -1.1669654482125e-16
  26    -4.4934488089854e-17
  27    4.5438457112138e-16
  28    1.5158210537116e-16
  29    1.3908070567941e-16
  30    -0.0016894233632765
  31    -5.0300244657169e-18
  32    -2.6118418297744e-16
  33    0.0024016564653419
  34    -2.0565426049311e-17
  35    -0.0005750747056873
  36    9.9910378366918e-05
  37    1.5711936542096e-16
  38    -1.1001201021187e-17
  39    0.0099513461401916
  40    -0.010466089770438
  41    0.00026865610702686
  42    0.00042382051518464
  43    -0.00058307720008057
  44    -0.0099513461401915
  45     0.010466089770437
  46    -0.00026865610702662
  47    -0.00042382051518478
  48    -0.00058307720008055
 Sym= A
 Ene=   -0.6744277875
 Spin= Alpha
 Occup=    2.00000
   1    -0.033373257231247
   2     -0.14859618019414
   3     -0.23196804877066
   4      0.12228700337647
   5     -0.20553811836806
   6    -2.0076286080808e-16
   7     0.093296189671145
   8     -0.16741471965801
   9    5.4643877052698e-17
  10    -0.0039538880664519
  11    4.2630302222281e-18
  12    7.2816376976091e-17
  13    -0.012379478143319
  14    -0.0059964903190291
  15      0.87761663798287
  16      0.55921291609238
  17     0.012629612892696
  18    -0.022892567941771
  19    4.4555202454781e-17
  20     -0.10158169073157
  21    -0.071541337044109
  22    -0.0094581434399129
  23     0.010282832998897
  24    -9.5086862308321e-17
  25    -2.851353758618e-05
  26     0.001830653901477
  27    0.0050161993747411
  28    -0.0049555817834187
  29    -0.0001495513272918
  30    -7.032485699377e-17
  31    -0.0048766929427945
  32    -0.0011776942417551
  33    1.9512808734651e-16
  34    0.0002662097877137
  35    1.3117591710412e-16
  36    1.2650787451667e-16
  37    -0.00069402600996844
  38    -9.5169751123431e-05
  39    0.0010832891744585
  40    0.0018743235365226
  41    -0.00073370855696943
  42    8.6477296418027e-05
  43    -0.00031519917697858
  44    0.0010832891744579
  45    0.0018743235365234
  46    -0.00073370855696939
  47    8.6477296418094e-05
  48    0.00031519917697863
 Sym= A
 Ene=   -0.6003905728
 Spin= Alpha
 Occup=    2.00000
   1    -0.036963529345039
   2      -0.1585126749353
   3     -0.22419408813007
   4     -0.24229574170887
   5    -0.0085686514449982
   6    6.4012799509821e-17
   7     -0.18748455111651
   8    -0.013591120515291
   9    5.2231409949933e-17
  10    -0.0038622089783167
  11    -1.8278360541976e-18
  12    -6.9125997925682e-17
  13     0.010527538181211
  14    0.0088257970901469
  15     -0.10192838011405
  16    -0.069486042259023
  17     0.014338962099716
  18    -0.0034371827439581
  19    -3.2679042127321e-17
  20      0.89294304897031
  21      0.56711460805591
  22    -0.022362765568037
  23    -0.0015317076196633
  24    9.2371885661326e-17
  25    -0.0010869945486649
  26    -0.020097467020977
  27    -0.022865400403596
  28     0.084821721693206
  29     -0.01140650847044
  30    6.7356347666468e-17
  31     0.053031190830985
  32    -0.0053266844698945
  33    -2.2014334318061e-16
  34    -0.00086056698878679
  35    -1.3168857541593e-16
  36    -1.5067396855138e-16
  37    0.0010259765263512
  38    0.0020533671743414
  39    -0.040418513106241
  40     -0.02203003015074
  41    -0.0026530423321446
  42    -2.0517236178751e-05
  43    -0.00026327471194944
  44     -0.04041851310624
  45    -0.022030030150741
  46    -0.0026530423321446
  47    -2.0517236178799e-05
  48    0.00026327471194941
