#INFO: **** input file is /home/yichi/research/software/cs_afqmc/ad_afqmc/lno_ccsd/test/hchain/afqmc.py ****
from functools import partial
from pyscf import gto, scf, cc
from ad_afqmc import pyscf_interface, run_afqmc

from jax import config
config.update("jax_enable_x64", True)

print = partial(print, flush=True)

a = 1.
nH = 4
atoms = ""
for i in range(nH):
    atoms += f"H {i*a} 0 0 \n"

mol = gto.M(atom=atoms, basis="sto6g", verbose=4)
mf = scf.RHF(mol).density_fit()
mf.kernel()

# cc
mycc = cc.CCSD(mf)
mycc.kernel()
et = mycc.ccsd_t()
print(f"ccsd energy is {mycc.e_tot}")
print(f"ccsd_t energy is {mycc.e_tot+et}")


options = {
    "n_eql": 4,
    "n_ene_blocks": 1,
    "n_sr_blocks": 20,
    "n_blocks": 40,
    "n_walkers": 50,
    "seed": 98,
    "trial": "cisd",
    "walker_type": "rhf",
    "dt":0.005,
}


mo_coeff = mf.mo_coeff
nfrozen = 0
norb_act = mol.nao - nfrozen
nelec_act = mol.nelectron - 2 * nfrozen
t1 = mycc.t1
t2 = mycc.t2


from ad_afqmc.lno_ccsd import lno_ccsd
lno_ccsd.prep_lno_amp_chol_file(mf,mo_coeff,options,norb_act=norb_act,nelec_act=nelec_act,
                                prjlo=[],norb_frozen=nfrozen,t1=t1,t2=t2,
                                df=True,chol_cut=1e-6,
                                option_file='options.bin',
                                mo_file="mo_coeff.npz",
                                amp_file="amplitudes.npz",
                                chol_file="FCIDUMP_chol"
                                )

from mpi4py import MPI

MPI.Finalize()
run_afqmc.run_afqmc(options=options, nproc=5)
#INFO: ******************** input file end ********************


System: uname_result(system='Linux', node='yichi-thinkpad', release='4.4.0-26100-Microsoft', version='#1882-Microsoft Fri Jan 01 08:00:00 PST 2016', machine='x86_64')  Threads 12
Python 3.10.16 | packaged by conda-forge | (main, Dec  5 2024, 14:16:10) [GCC 13.3.0]
numpy 1.24.3  scipy 1.14.1  h5py 3.12.1
Date: Thu Jul 17 13:19:40 2025
PySCF version 2.8.0
PySCF path  /home/yichi/research/software/lno_pyscf
GIT HEAD (branch master) ef75f4190e4de208685670651dc6c467f72b6794

[ENV] PYSCF_EXT_PATH /home/yichi/research/software/pyscf
[CONFIG] conf_file None
[INPUT] verbose = 4
[INPUT] num. atoms = 4
[INPUT] num. electrons = 4
[INPUT] charge = 0
[INPUT] spin (= nelec alpha-beta = 2S) = 0
[INPUT] symmetry False subgroup None
[INPUT] Mole.unit = angstrom
[INPUT] Symbol           X                Y                Z      unit          X                Y                Z       unit  Magmom
[INPUT]  1 H      0.000000000000   0.000000000000   0.000000000000 AA    0.000000000000   0.000000000000   0.000000000000 Bohr   0.0
[INPUT]  2 H      1.000000000000   0.000000000000   0.000000000000 AA    1.889726124565   0.000000000000   0.000000000000 Bohr   0.0
[INPUT]  3 H      2.000000000000   0.000000000000   0.000000000000 AA    3.779452249130   0.000000000000   0.000000000000 Bohr   0.0
[INPUT]  4 H      3.000000000000   0.000000000000   0.000000000000 AA    5.669178373695   0.000000000000   0.000000000000 Bohr   0.0

nuclear repulsion = 2.29310124732
number of shells = 4
number of NR pGTOs = 24
number of NR cGTOs = 4
basis = sto6g
ecp = {}
CPU time:         0.73


******** <class 'pyscf.df.df_jk.DFRHF'> ********
method = DFRHF
initial guess = minao
damping factor = 0
level_shift factor = 0
DIIS = <class 'pyscf.scf.diis.CDIIS'>
diis_start_cycle = 1
diis_space = 8
diis_damp = 0
SCF conv_tol = 1e-09
SCF conv_tol_grad = None
SCF max_cycles = 50
direct_scf = False
chkfile to save SCF result = /tmp/tmpf1_prut4
max_memory 4000 MB (current use 133 MB)
Set gradient conv threshold to 3.16228e-05
Initial guess from minao.
******** <class 'pyscf.df.df.DF'> ********
auxbasis = None
max_memory = 4000
ETB for H: l = 0, exps = 0.200224856 * 2^n , n = 0..8

WARN: Even tempered Gaussians are generated as DF auxbasis for  H

init E= -1.5636069122609
  HOMO = -0.268012327574771  LUMO = 0.204392854914837
cycle= 1 E= -2.11052372851126  delta_E= -0.547  |g|= 0.0896  |ddm|= 1.36
  HOMO = -0.384501914529815  LUMO = 0.293379797644188
cycle= 2 E= -2.11464613736379  delta_E= -0.00412  |g|= 0.0241  |ddm|= 0.17
  HOMO = -0.387888256004138  LUMO = 0.303664032774174
cycle= 3 E= -2.11503710764019  delta_E= -0.000391  |g|= 0.00353  |ddm|= 0.0514
  HOMO = -0.389373507194992  LUMO = 0.303838079777913
cycle= 4 E= -2.11504499060308  delta_E= -7.88e-06  |g|= 1.21e-05  |ddm|= 0.00907
  HOMO = -0.389361718625647  LUMO = 0.303832498262422
cycle= 5 E= -2.11504499066634  delta_E= -6.33e-11  |g|= 5.37e-06  |ddm|= 1.67e-05
  HOMO = -0.389352569628568  LUMO = 0.303828665318665
Extra cycle  E= -2.11504499068051  delta_E= -1.42e-11  |g|= 1.35e-06  |ddm|= 1.02e-05
converged SCF energy = -2.11504499068051

******** <class 'pyscf.cc.dfccsd.RCCSD'> ********
CC2 = 0
CCSD nocc = 2, nmo = 4
max_cycle = 50
direct = 0
conv_tol = 1e-07
conv_tol_normt = 1e-05
diis_space = 6
diis_start_cycle = 0
diis_start_energy_diff = 1e+09
max_memory 4000 MB (current use 139 MB)
Init t2, MP2 energy = -2.15607298422598  E_corr(MP2) -0.0410279935454645
Init E_corr(RCCSD) = -0.0410279935463436
cycle = 1  E_corr(RCCSD) = -0.0568208358638093  dE = -0.0157928423  norm(t1,t2) = 0.0563568
cycle = 2  E_corr(RCCSD) = -0.0634981732540784  dE = -0.00667733739  norm(t1,t2) = 0.027268
cycle = 3  E_corr(RCCSD) = -0.0690283559534064  dE = -0.0055301827  norm(t1,t2) = 0.0136693
cycle = 4  E_corr(RCCSD) = -0.0689755205293532  dE = 5.28354241e-05  norm(t1,t2) = 0.00273069
cycle = 5  E_corr(RCCSD) = -0.0690245201104617  dE = -4.89995811e-05  norm(t1,t2) = 0.00029374
cycle = 6  E_corr(RCCSD) = -0.0690280525319372  dE = -3.53242148e-06  norm(t1,t2) = 1.53653e-05
cycle = 7  E_corr(RCCSD) = -0.0690260669046519  dE = 1.98562729e-06  norm(t1,t2) = 4.27713e-06
cycle = 8  E_corr(RCCSD) = -0.0690262961432199  dE = -2.29238568e-07  norm(t1,t2) = 7.71667e-07
cycle = 9  E_corr(RCCSD) = -0.0690262886290929  dE = 7.514127e-09  norm(t1,t2) = 3.86122e-08
RCCSD converged
E(RCCSD) = -2.184071279309607  E_corr = -0.06902628862909292
RCCSD(T) correction = -6.4033696029388e-05
ccsd energy is -2.184071279309607
ccsd_t energy is -2.1841353130056365
# Generating Cholesky Integrals
# frozen orbitals: []
# local active orbitals: [0 1 2 3]
# local active space size: 4
# using density fitting
# Decomposing ERI with DF
# chol shape: (36, 16)
# Finished calculating Cholesky integrals

# Size of the correlation space
# Number of electrons: (2, 2)
# Number of basis functions: 4
# Number of DF vectors: 36

# Hostname: yichi-thinkpad
# System Type: Linux
# Machine Type: x86_64
# Processor: x86_64
# Number of MPI ranks: 5
#
# norb: 4
# nelec: (2, 2)
#
# n_eql: 4
# n_ene_blocks: 1
# n_sr_blocks: 20
# n_blocks: 40
# n_walkers: 50
# seed: 98
# trial: cisd
# walker_type: rhf
# dt: 0.005
# n_exp_terms: 6
# n_prop_steps: 50
# orbital_rotation: True
# do_sr: True
# symmetry: False
# save_walkers: False
# ene0: 0.0
# free_projection: False
# n_batch: 1
# LNO: False
# orbE: 0
# maxError: 0.001
#
# Equilibration sweeps:
#   Iter        Block energy      Walltime
#     0      -2.184071271e+00     6.95e+00 
#     1      -2.184047699e+00     2.18e+01 
#     2      -2.184026718e+00     3.49e+01 
#     3      -2.184070587e+00     3.91e+01 
#     4      -2.183951139e+00     4.34e+01 
#
# Sampling sweeps:
#  Iter        Mean energy          Stochastic error       Walltime
     0      -2.184088102e+00                -              5.34e+01 
     4      -2.184060089e+00        4.751176422e-05        6.05e+01 
     8      -2.184059791e+00        4.323626398e-05        6.76e+01 
    12      -2.184053669e+00        3.431179759e-05        7.47e+01 
    16      -2.184093584e+00        3.438177283e-05        8.20e+01 
    20      -2.184078976e+00        2.937622880e-05        8.91e+01 
    24      -2.184073278e+00        2.678128460e-05        9.63e+01 
    28      -2.184063228e+00        2.393013728e-05        1.03e+02 
    32      -2.184070353e+00        2.395822650e-05        1.10e+02 
    36      -2.184070200e+00        2.242547086e-05        1.17e+02 
#
# Number of large deviations: 0
# Number of outliers in post: 0 
#
# Mean: -2.18407477e+00
# Block size    # of blocks         Mean                Error
      1              200       -2.18407477e+00       2.113810e-05
      2              100       -2.18407477e+00       1.924024e-05
      5               40       -2.18407477e+00       2.000435e-05
     10               20       -2.18407477e+00       2.352631e-05
     20               10       -2.18407477e+00       2.712369e-05
     50                4       -2.18407477e+00       3.168730e-05
# Stocahstic error estimate: 2.113810e-05
#
AFQMC energy: -2.18407 +/- 0.00002

ph_afqmc walltime: 122.32406973838806
