[Molden Format]
made by pyscf v[2.8.0]
[Atoms] (AU)
H   1   1     0.00000000000000     0.00000000000000     0.00000000000000
H   2   1     1.83099343661358     0.00000000000000     0.00000000000000
H   3   1     4.83099035114435     0.00000000000000     0.00000000000000
H   4   1     6.66200268501918     0.00000000000000     0.00000000000000
H   5   1     9.66199959954995     0.00000000000000     0.00000000000000
H   6   1    11.49299303616353     0.00000000000000     0.00000000000000
H   7   1    14.49298995069430     0.00000000000000     0.00000000000000
H   8   1    16.32400228456913     0.00000000000000     0.00000000000000
H   9   1    19.32399919909990     0.00000000000000     0.00000000000000
H   10   1    21.15499263571348     0.00000000000000     0.00000000000000
H   11   1    24.15498955024425     0.00000000000000     0.00000000000000
H   12   1    25.98598298685783     0.00000000000000     0.00000000000000
H   13   1    28.98597990138861     0.00000000000000     0.00000000000000
H   14   1    30.81699223526343     0.00000000000000     0.00000000000000
H   15   1    33.81698914979420     0.00000000000000     0.00000000000000
H   16   1    35.64798258640779     0.00000000000000     0.00000000000000
H   17   1    38.64797950093856     0.00000000000000     0.00000000000000
H   18   1    40.47899183481338     0.00000000000000     0.00000000000000
H   19   1    43.47898874934415     0.00000000000000     0.00000000000000
H   20   1    45.30998218595774     0.00000000000000     0.00000000000000
[GTO]
1 0
 s    6 1.00
           35.52322122  0.0091635962807908
           6.513143725    0.04936149294426
           1.822142904    0.16853830491455
           0.625955266    0.37056279973198
           0.243076747    0.41649152983594
           0.100112428    0.13033408411125

2 0
 s    6 1.00
           35.52322122  0.0091635962807908
           6.513143725    0.04936149294426
           1.822142904    0.16853830491455
           0.625955266    0.37056279973198
           0.243076747    0.41649152983594
           0.100112428    0.13033408411125

3 0
 s    6 1.00
           35.52322122  0.0091635962807908
           6.513143725    0.04936149294426
           1.822142904    0.16853830491455
           0.625955266    0.37056279973198
           0.243076747    0.41649152983594
           0.100112428    0.13033408411125

4 0
 s    6 1.00
           35.52322122  0.0091635962807908
           6.513143725    0.04936149294426
           1.822142904    0.16853830491455
           0.625955266    0.37056279973198
           0.243076747    0.41649152983594
           0.100112428    0.13033408411125

5 0
 s    6 1.00
           35.52322122  0.0091635962807908
           6.513143725    0.04936149294426
           1.822142904    0.16853830491455
           0.625955266    0.37056279973198
           0.243076747    0.41649152983594
           0.100112428    0.13033408411125

6 0
 s    6 1.00
           35.52322122  0.0091635962807908
           6.513143725    0.04936149294426
           1.822142904    0.16853830491455
           0.625955266    0.37056279973198
           0.243076747    0.41649152983594
           0.100112428    0.13033408411125

7 0
 s    6 1.00
           35.52322122  0.0091635962807908
           6.513143725    0.04936149294426
           1.822142904    0.16853830491455
           0.625955266    0.37056279973198
           0.243076747    0.41649152983594
           0.100112428    0.13033408411125

8 0
 s    6 1.00
           35.52322122  0.0091635962807908
           6.513143725    0.04936149294426
           1.822142904    0.16853830491455
           0.625955266    0.37056279973198
           0.243076747    0.41649152983594
           0.100112428    0.13033408411125

9 0
 s    6 1.00
           35.52322122  0.0091635962807908
           6.513143725    0.04936149294426
           1.822142904    0.16853830491455
           0.625955266    0.37056279973198
           0.243076747    0.41649152983594
           0.100112428    0.13033408411125

10 0
 s    6 1.00
           35.52322122  0.0091635962807908
           6.513143725    0.04936149294426
           1.822142904    0.16853830491455
           0.625955266    0.37056279973198
           0.243076747    0.41649152983594
           0.100112428    0.13033408411125

11 0
 s    6 1.00
           35.52322122  0.0091635962807908
           6.513143725    0.04936149294426
           1.822142904    0.16853830491455
           0.625955266    0.37056279973198
           0.243076747    0.41649152983594
           0.100112428    0.13033408411125

12 0
 s    6 1.00
           35.52322122  0.0091635962807908
           6.513143725    0.04936149294426
           1.822142904    0.16853830491455
           0.625955266    0.37056279973198
           0.243076747    0.41649152983594
           0.100112428    0.13033408411125

13 0
 s    6 1.00
           35.52322122  0.0091635962807908
           6.513143725    0.04936149294426
           1.822142904    0.16853830491455
           0.625955266    0.37056279973198
           0.243076747    0.41649152983594
           0.100112428    0.13033408411125

14 0
 s    6 1.00
           35.52322122  0.0091635962807908
           6.513143725    0.04936149294426
           1.822142904    0.16853830491455
           0.625955266    0.37056279973198
           0.243076747    0.41649152983594
           0.100112428    0.13033408411125

15 0
 s    6 1.00
           35.52322122  0.0091635962807908
           6.513143725    0.04936149294426
           1.822142904    0.16853830491455
           0.625955266    0.37056279973198
           0.243076747    0.41649152983594
           0.100112428    0.13033408411125

16 0
 s    6 1.00
           35.52322122  0.0091635962807908
           6.513143725    0.04936149294426
           1.822142904    0.16853830491455
           0.625955266    0.37056279973198
           0.243076747    0.41649152983594
           0.100112428    0.13033408411125

17 0
 s    6 1.00
           35.52322122  0.0091635962807908
           6.513143725    0.04936149294426
           1.822142904    0.16853830491455
           0.625955266    0.37056279973198
           0.243076747    0.41649152983594
           0.100112428    0.13033408411125

18 0
 s    6 1.00
           35.52322122  0.0091635962807908
           6.513143725    0.04936149294426
           1.822142904    0.16853830491455
           0.625955266    0.37056279973198
           0.243076747    0.41649152983594
           0.100112428    0.13033408411125

19 0
 s    6 1.00
           35.52322122  0.0091635962807908
           6.513143725    0.04936149294426
           1.822142904    0.16853830491455
           0.625955266    0.37056279973198
           0.243076747    0.41649152983594
           0.100112428    0.13033408411125

20 0
 s    6 1.00
           35.52322122  0.0091635962807908
           6.513143725    0.04936149294426
           1.822142904    0.16853830491455
           0.625955266    0.37056279973198
           0.243076747    0.41649152983594
           0.100112428    0.13033408411125

[5d]
[7f]
[9g]

[MO]
 Sym= A
 Ene=               0
 Spin= Alpha
 Occup=    1.00000
   1    -0.00020161543163724
   2    2.8879062042124e-05
   3    0.00075741096810318
   4    -0.00013223569043988
   5    -0.0030024053240731
   6    0.00060166542552554
   7     0.012975632807995
   8    -0.0029549569002849
   9    -0.065917560899811
  10    0.0043727947605156
  11      0.57366639558498
  12      0.57365232757494
  13    0.0043633509464392
  14    -0.065913947773303
  15    -0.0029536719257303
  16     0.012977451900973
  17    0.00060005331749655
  18    -0.0030070206409547
  19    -0.00012484336678098
  20    0.00076376545245771
 Sym= A
 Ene=               1
 Spin= Alpha
 Occup=    1.00000
   1      0.01314711098765
   2    -0.0028087847645612
   3    -0.066018650346355
   4     0.004321898566269
   5      0.57360034646853
   6      0.57371798753795
   7    0.0044127689437547
   8    -0.065940367931757
   9    -0.0029638635839308
  10     0.012983656798832
  11    0.00060351046679668
  12    -0.0030039979956906
  13    -0.00013300361164176
  14    0.00075668079788918
  15    3.0935768370377e-05
  16    -0.00020000247403995
  17    -7.4647423068119e-06
  18    5.4589410172085e-05
  19    1.7287064358711e-06
  20    -1.5288190710103e-05
 Sym= A
 Ene=               2
 Spin= Alpha
 Occup=    1.00000
   1    4.325348901657e-06
   2    -4.3942086790094e-07
   3    -1.5211778975843e-05
   4    1.8665135467777e-06
   5    5.4553302046088e-05
   6    -7.5163926616176e-06
   7    -0.00020012891046294
   8    3.1045481817697e-05
   9    0.00075731237066785
  10    -0.00013349531563625
  11    -0.0030063861243622
  12    0.00060591010823866
  13     0.012991901091855
  14    -0.0029765032187323
  15     -0.06597759253318
  16    0.0045212203072444
  17      0.57384856201758
  18      0.57361542463267
  19    0.0035400384563715
  20    -0.066932443220509
 Sym= A
 Ene=               3
 Spin= Alpha
 Occup=    1.00000
   1    -0.0030363539177003
   2    0.00056954556805702
   3     0.012997611847345
   4    -0.0029475017159771
   5    -0.065919458763227
   6    0.0043541793952542
   7      0.57363503827056
   8      0.57368504609385
   9     0.004385629732346
  10    -0.065924829469469
  11    -0.0029578911003518
  12     0.012977795632891
  13    0.00060226185399909
  14    -0.0030023634779112
  15    -0.00013272303894864
  16    0.00075638857978517
  17    3.0775092196428e-05
  18    -0.00020018167232809
  19    -6.9590636372907e-06
  20    5.4910291070936e-05
 Sym= A
 Ene=               4
 Spin= Alpha
 Occup=    1.00000
   1      0.57277048383805
   2      0.57528685660911
   3    0.0048424446326945
   4    -0.065583544522828
   5    -0.002980740700688
   6     0.012865582145592
   7      0.00060206687703
   8    -0.0029707985596334
   9    -0.00013211325032695
  10    0.00074732032687878
  11    3.0636523067357e-05
  12    -0.00019727249501497
  13    -7.4024288837515e-06
  14    5.3716485035438e-05
  15    1.8423793750784e-06
  16    -1.4948869706037e-05
  17    -4.66952165162e-07
  18    4.2318304532378e-06
  19    1.1108803879556e-07
  20    -1.2167109283978e-06
 Sym= A
 Ene=               5
 Spin= Alpha
 Occup=    1.00000
   1    -1.2167109285088e-06
   2    1.1108803893434e-07
   3    4.2318304529707e-06
   4    -4.6695216497639e-07
   5    -1.4948869706065e-05
   6    1.8423793750159e-06
   7    5.371648503523e-05
   8    -7.4024288836752e-06
   9    -0.00019727249501472
  10    3.0636523067781e-05
  11    0.00074732032687903
  12    -0.00013211325032723
  13    -0.0029707985596338
  14    0.00060206687703015
  15     0.012865582145592
  16    -0.0029807407006886
  17    -0.065583544522828
  18    0.0048424446326965
  19      0.57528685660911
  20      0.57277048383805
 Sym= A
 Ene=               6
 Spin= Alpha
 Occup=    1.00000
   1    5.491029107095e-05
   2    -6.9590636372664e-06
   3    -0.00020018167232802
   4    3.077509219649e-05
   5    0.00075638857978516
   6    -0.00013272303894876
   7    -0.003002363477911
   8    0.00060226185399903
   9     0.012977795632892
  10    -0.0029578911003517
  11    -0.065924829469472
  12    0.0043856297323471
  13      0.57368504609386
  14      0.57363503827055
  15    0.0043541793952559
  16    -0.065919458763228
  17    -0.0029475017159771
  18     0.012997611847345
  19    0.00056954556805695
  20    -0.0030363539177001
 Sym= A
 Ene=               7
 Spin= Alpha
 Occup=    1.00000
   1    -0.066932443220508
   2     0.003540038456371
   3      0.57361542463267
   4      0.57384856201758
   5    0.0045212203072431
   6    -0.065977592533182
   7    -0.0029765032187324
   8     0.012991901091856
   9    0.00060591010823834
  10    -0.0030063861243624
  11    -0.00013349531563594
  12    0.00075731237066827
  13    3.1045481817892e-05
  14    -0.00020012891046323
  15    -7.5163926615898e-06
  16    5.4553302046075e-05
  17    1.8665135466805e-06
  18    -1.5211778975649e-05
  19    -4.3942086807441e-07
  20    4.3253489016154e-06
 Sym= A
 Ene=               8
 Spin= Alpha
 Occup=    1.00000
   1    -1.5288190710221e-05
   2    1.7287064359821e-06
   3    5.458941017189e-05
   4    -7.4647423068119e-06
   5    -0.00020000247403973
   6    3.0935768370211e-05
   7    0.00075668079788901
   8    -0.00013300361164183
   9    -0.0030039979956907
  10    0.00060351046679663
  11     0.012983656798832
  12    -0.002963863583932
  13    -0.065940367931758
  14    0.0044127689437566
  15      0.57371798753795
  16      0.57360034646853
  17    0.0043218985662688
  18    -0.066018650346357
  19    -0.0028087847645612
  20     0.013147110987651
 Sym= A
 Ene=               9
 Spin= Alpha
 Occup=    1.00000
   1    0.00076376545245767
   2    -0.00012484336678092
   3    -0.0030070206409545
   4    0.00060005331749653
   5     0.012977451900973
   6    -0.0029536719257302
   7    -0.065913947773301
   8     0.004363350946438
   9      0.57365232757494
  10      0.57366639558499
  11    0.0043727947605166
  12    -0.065917560899812
  13    -0.0029549569002848
  14     0.012975632807995
  15    0.00060166542552554
  16    -0.0030024053240731
  17    -0.00013223569043995
  18    0.00075741096810318
  19    2.8879062041923e-05
  20    -0.00020161543163694
