# Hostname: yichi-thinkpad
# System Type: Linux
# Machine Type: x86_64
# Processor: x86_64
#INFO: **** input file is /home/yichi/research/software/cs_afqmc/ad_afqmc/lnocc/hchain/test/test.py ****
import sys, os
import numpy as np
from functools import reduce
from pyscf.lib import logger
from ad_afqmc.lno.cc import LNOCCSD
from ad_afqmc import lno_ccsd
from pyscf import gto, scf, mp, cc
from ad_afqmc.lno.base import lno
from ad_afqmc.lno.afqmc import LNOAFQMC

log = logger.Logger(sys.stdout, 6)

a = 0.9
nH = 6
atoms = ""
for i in range(nH):
    atoms += f"H {i*a} 0 0 \n"

mol = gto.M(atom=atoms, basis="ccpvdz", verbose=4)
mf = scf.RHF(mol).density_fit()
mf.kernel()

# frozen = 0
# mmp = mp.MP2(mf,frozen=frozen)
# mmp.kernel()[0]

# # cc
# mycc = cc.CCSD(mf)
# mycc.kernel()
# et = mycc.ccsd_t()

# fci
#cisolver = fci.FCI(mf)
#fci_ene, fci_vec = cisolver.kernel()

# print(f'rhf energy is {mf.e_tot}')
# print(f"ccsd energy is {mycc.e_tot}")
# print(f"ccsd_t energy is {mycc.e_tot+et}")
# print(f"ccsd correlation energy is {mycc.e_corr}")

options = {'n_eql': 6,
           'n_prop_steps': 20,
            'n_ene_blocks': 1,
            'n_sr_blocks': 10,
            'n_blocks': 20,
            'n_walkers': 50,
            'seed': 2,
            'walker_type': 'rhf',
            'trial': 'cisd',
            'dt':0.01,
            'ad_mode':None,
            }


thresh = 4.06e-05
lno_ccsd.run_lno_ccsd_afqmc(mf,thresh,[],options,1e-6,8)#INFO: ******************** input file end ********************


System: uname_result(system='Linux', node='yichi-thinkpad', release='4.4.0-26100-Microsoft', version='#1882-Microsoft Fri Jan 01 08:00:00 PST 2016', machine='x86_64')  Threads 12
Python 3.10.16 | packaged by conda-forge | (main, Dec  5 2024, 14:16:10) [GCC 13.3.0]
numpy 1.24.3  scipy 1.14.1  h5py 3.12.1
Date: Sun Jun 15 15:27:48 2025
PySCF version 2.8.0
PySCF path  /home/yichi/research/software/lno_pyscf
GIT HEAD (branch master) ef75f4190e4de208685670651dc6c467f72b6794

[ENV] PYSCF_EXT_PATH /home/yichi/research/software/pyscf
[CONFIG] conf_file None
[INPUT] verbose = 4
[INPUT] num. atoms = 6
[INPUT] num. electrons = 6
[INPUT] charge = 0
[INPUT] spin (= nelec alpha-beta = 2S) = 0
[INPUT] symmetry False subgroup None
[INPUT] Mole.unit = angstrom
[INPUT] Symbol           X                Y                Z      unit          X                Y                Z       unit  Magmom
[INPUT]  1 H      0.000000000000   0.000000000000   0.000000000000 AA    0.000000000000   0.000000000000   0.000000000000 Bohr   0.0
[INPUT]  2 H      0.900000000000   0.000000000000   0.000000000000 AA    1.700753512109   0.000000000000   0.000000000000 Bohr   0.0
[INPUT]  3 H      1.800000000000   0.000000000000   0.000000000000 AA    3.401507024217   0.000000000000   0.000000000000 Bohr   0.0
[INPUT]  4 H      2.700000000000   0.000000000000   0.000000000000 AA    5.102260536326   0.000000000000   0.000000000000 Bohr   0.0
[INPUT]  5 H      3.600000000000   0.000000000000   0.000000000000 AA    6.803014048434   0.000000000000   0.000000000000 Bohr   0.0
[INPUT]  6 H      4.500000000000   0.000000000000   0.000000000000 AA    8.503767560543   0.000000000000   0.000000000000 Bohr   0.0

nuclear repulsion = 5.11537970556
number of shells = 18
number of NR pGTOs = 42
number of NR cGTOs = 30
basis = ccpvdz
ecp = {}
CPU time:         1.23


******** <class 'pyscf.df.df_jk.DFRHF'> ********
method = DFRHF
initial guess = minao
damping factor = 0
level_shift factor = 0
DIIS = <class 'pyscf.scf.diis.CDIIS'>
diis_start_cycle = 1
diis_space = 8
diis_damp = 0
SCF conv_tol = 1e-09
SCF conv_tol_grad = None
SCF max_cycles = 50
direct_scf = False
chkfile to save SCF result = /tmp/tmpqs8l4dhl
max_memory 4000 MB (current use 145 MB)
Set gradient conv threshold to 3.16228e-05
Initial guess from minao.
******** <class 'pyscf.df.df.DF'> ********
auxbasis = None
max_memory = 4000
Default auxbasis cc-pvdz-jkfit is used for H ccpvdz
init E= -2.67700584552365
  HOMO = -0.262674844680972  LUMO = 0.0388295651460746
cycle= 1 E= -3.23301970436705  delta_E= -0.556  |g|= 0.126  |ddm|= 1.36
  HOMO = -0.389482660690848  LUMO = 0.081910606959531
cycle= 2 E= -3.24210600516978  delta_E= -0.00909  |g|= 0.0338  |ddm|= 0.435
  HOMO = -0.381871045027768  LUMO = 0.100126545036022
cycle= 3 E= -3.24297627084339  delta_E= -0.00087  |g|= 0.0087  |ddm|= 0.195
  HOMO = -0.384945731936205  LUMO = 0.101678747618444
cycle= 4 E= -3.2430400898962  delta_E= -6.38e-05  |g|= 0.00138  |ddm|= 0.0652
  HOMO = -0.385272011089037  LUMO = 0.10189091548651
cycle= 5 E= -3.24304154650484  delta_E= -1.46e-06  |g|= 8.99e-05  |ddm|= 0.00832
  HOMO = -0.38528190419185  LUMO = 0.101916839372167
cycle= 6 E= -3.24304155130022  delta_E= -4.8e-09  |g|= 6.27e-06  |ddm|= 0.000271
  HOMO = -0.385278502411289  LUMO = 0.101917817626691
cycle= 7 E= -3.24304155132317  delta_E= -2.29e-11  |g|= 6.67e-07  |ddm|= 2.43e-05
  HOMO = -0.385278522425685  LUMO = 0.101918056101898
Extra cycle  E= -3.2430415513234  delta_E= -2.29e-13  |g|= 1.63e-07  |ddm|= 5.55e-06
converged SCF energy = -3.2430415513234
no_type = ie
lo_type = pm
LOs span exactly the occupied space.
Using single-LO fragment
nfrag = 3  nlo = 3
frag_atmlist = None
frag_lolist = [[0], [1], [2]]
frag_nonvlist = None
Lov is saved to /tmp/6n0pn22x
########### running fragment 1 ##########
    impsol:  1 LOs  18/30 MOs  3 occ  15 vir
    CPU time for imp sol - eri          0.00 sec, wall time      0.01 sec
    CPU time for imp sol - mp2 amp      0.02 sec, wall time      0.00 sec
    CPU time for imp sol - mp2 ene      0.00 sec, wall time      0.00 sec
    CPU time for imp sol - cc  amp      0.89 sec, wall time      0.57 sec
    CPU time for imp sol - cc  ene      0.00 sec, wall time      0.00 sec
# lno-ccsd correlation energy is: -0.044069137384329965
# Generating Cholesky Integrals
# frozen orbitals are [18 19 20 21 22 23 24 25 26 27 28 29]
# local active orbitals are [ 0  1  2  3  4  5  6  7  8  9 10 11 12 13 14 15 16 17]
# local active space size 18
# loc_eris shape: (324, 324)
# chol shape: (113, 324)
# Finished calculating Cholesky integrals

# Size of the correlation space:
# Number of electrons: (3, 3)
# Number of basis functions: 18
# Number of Cholesky vectors: 113

# Hostname: yichi-thinkpad
# System Type: Linux
# Machine Type: x86_64
# Processor: x86_64
# Number of MPI ranks: 8
#
# norb: 18
# nelec: (3, 3)
#
# n_eql: 6
# n_prop_steps: 20
# n_ene_blocks: 1
# n_sr_blocks: 10
# n_blocks: 20
# n_walkers: 50
# seed: 2
# walker_type: rhf
# trial: cisd
# dt: 0.01
# n_exp_terms: 6
# orbital_rotation: True
# do_sr: True
# symmetry: False
# save_walkers: False
# ene0: 0.0
# free_projection: False
# n_batch: 1
# maxError: 0.001
# use_gpu: False
#
# Hostname: yichi-thinkpad
# System Type: Linux
# Machine Type: x86_64
# Processor: x86_64
# afqmc propagation with ccsd trial using 400 walkers
# system relaxing and appraching the equilibrium of the Markov Chain
# eql_step 	 sys_energy 	 zero_orb_cr 	 hf_orb_cr 	 ccsd_orb_cr 	 tot_orb_cr 	 wall_time
    0	 	 -3.350435	 0.000000	 0.000000	 -0.044080	 -0.044080	    0.00
    1	 	 -3.351121	 0.144937	 -0.032360	 -0.156613	 -0.044037	   34.75 
    2	 	 -3.352116	 0.204399	 -0.040757	 -0.207726	 -0.044085	   61.43 
    3	 	 -3.351896	 0.206184	 -0.040377	 -0.210055	 -0.044249	   72.25 
    4	 	 -3.351931	 0.197244	 -0.040420	 -0.201122	 -0.044298	   83.30 
    5	 	 -3.352132	 0.207640	 -0.041624	 -0.210361	 -0.044345	   94.12 
    6	 	 -3.352374	 0.205776	 -0.041358	 -0.208902	 -0.044484	   105.01 
# Sampling sweeps:
# iter 	 sys_energy 	 err 	 zero_orb_cr 	 err 	 hf_orb_cr 	 err 	 ccsd_orb_cr 	 err 	 tot_orb_cr 	 err 	 time
   0   -3.352151     None     0.210427   0.210427   -0.040177   0.000975   -0.214356   0.004912   -0.044106     None    10.50 
   2   -3.352352     None     0.215940   0.215940   -0.041782   0.000666   -0.218464   0.004115   -0.044307   0.000086  58.67 
   4   -3.352178     None     0.212584   0.212584   -0.041255   0.000532   -0.215620   0.003739   -0.044291   0.000061  79.75 
   6   -3.352176     None     0.210597   0.210597   -0.040740   0.000452   -0.214141   0.003029   -0.044284   0.000052  99.58 
   8   -3.352171   0.000066   0.209130   0.209130   -0.040370   0.000474   -0.213030   0.002715   -0.044270   0.000049  121.35 
  10   -3.352231   0.000059   0.209525   0.209525   -0.040327   0.000361   -0.213462   0.002419   -0.044264   0.000043  142.13 
  12   -3.352246   0.000059   0.212130   0.212130   -0.040600   0.000461   -0.215785   0.002325   -0.044255   0.000039  163.45 
  14   -3.352269   0.000059   0.213336   0.213336   -0.040668   0.000308   -0.216904   0.002156   -0.044236   0.000037  182.91 
  16   -3.352293   0.000054   0.213908   0.213908   -0.040747   0.000295   -0.217401   0.002064   -0.044239   0.000033  204.03 
  18   -3.352295   0.000050   0.214498   0.214498   -0.040845   0.000271   -0.217900   0.001912   -0.044248   0.000031  223.91 
# Number of outliers in post: 0 
#
# Mean: -3.35230159e+00
# Block size    # of blocks         Mean                Error
      1              160       -3.35230159e+00       4.930975e-05
      2               80       -3.35230159e+00       4.681958e-05
      5               32       -3.35230159e+00       4.253672e-05
     10               16       -3.35230159e+00       5.514736e-05
     20                8       -3.35230159e+00       6.418490e-05
     50                3       -3.35229678e+00       1.068543e-04
# Stocahstic error estimate: 4.930975e-05
#
#
# Mean: 2.13962283e-01
# Block size    # of blocks         Mean                Error
      1              160       2.13962283e-01       2.123890e-03
      2               80       2.13962283e-01       2.153489e-03
      5               32       2.13962283e-01       2.049399e-03
     10               16       2.13962283e-01       2.272261e-03
     20                8       2.13962283e-01       2.519097e-03
     50                3       2.14568715e-01       3.237067e-03
# Stocahstic error estimate: 2.153489e-03
#
#
# Mean: -4.08143695e-02
# Block size    # of blocks         Mean                Error
      1              160       -4.08143695e-02       2.648511e-04
      2               80       -4.08143695e-02       2.742977e-04
      5               32       -4.08143695e-02       2.565406e-04
     10               16       -4.08143695e-02       2.767378e-04
     20                8       -4.08143695e-02       3.009406e-04
     50                3       -4.08383574e-02       3.649540e-04
# Stocahstic error estimate: 2.742977e-04
#
#
# Mean: -2.17396143e-01
# Block size    # of blocks         Mean                Error
      1              160       -2.17396143e-01       1.891945e-03
      2               80       -2.17396143e-01       1.909757e-03
      5               32       -2.17396143e-01       1.829711e-03
     10               16       -2.17396143e-01       2.035124e-03
     20                8       -2.17396143e-01       2.268136e-03
     50                3       -2.17981264e-01       2.938886e-03
# Stocahstic error estimate: 1.909757e-03
#
#
# Mean: -4.42482304e-02
# Block size    # of blocks         Mean                Error
      1              160       -4.42482304e-02       2.960601e-05
      2               80       -4.42482304e-02       2.824737e-05
      5               32       -4.42482304e-02       2.588084e-05
     10               16       -4.42482304e-02       2.874755e-05
     20                8       -4.42482304e-02       2.387033e-05
     50                3       -4.42509067e-02       6.916920e-06
# Stocahstic error estimate: 2.960601e-05
#
afqmc energy: -3.352302 +/- 0.000049
zero_orb_cr: 0.213962 +/- 0.213962
hf_orb_cr: -0.040814 +/- 0.000274
ccsd_orb_cr: -0.217396 +/- 0.001910
tot_orb_cr: -0.044248 +/- 0.000030
########### running fragment 2 ##########
    impsol:  1 LOs  14/30 MOs  3 occ  11 vir
    CPU time for imp sol - eri          0.02 sec, wall time      0.02 sec
    CPU time for imp sol - mp2 amp      0.02 sec, wall time      0.01 sec
    CPU time for imp sol - mp2 ene      0.00 sec, wall time      0.00 sec
    CPU time for imp sol - cc  amp      1.16 sec, wall time      0.76 sec
    CPU time for imp sol - cc  ene      0.00 sec, wall time      0.00 sec
# lno-ccsd correlation energy is: -0.040850868223155964
# Generating Cholesky Integrals
# frozen orbitals are [14 15 16 17 18 19 20 21 22 23 24 25 26 27 28 29]
# local active orbitals are [ 0  1  2  3  4  5  6  7  8  9 10 11 12 13]
# local active space size 14
# loc_eris shape: (196, 196)
# chol shape: (80, 196)
# Finished calculating Cholesky integrals

# Size of the correlation space:
# Number of electrons: (3, 3)
# Number of basis functions: 14
# Number of Cholesky vectors: 80

# Hostname: yichi-thinkpad
# System Type: Linux
# Machine Type: x86_64
# Processor: x86_64
# Number of MPI ranks: 8
#
# norb: 14
# nelec: (3, 3)
#
# n_eql: 6
# n_prop_steps: 20
# n_ene_blocks: 1
# n_sr_blocks: 10
# n_blocks: 20
# n_walkers: 50
# seed: 2
# walker_type: rhf
# trial: cisd
# dt: 0.01
# n_exp_terms: 6
# orbital_rotation: True
# do_sr: True
# symmetry: False
# save_walkers: False
# ene0: 0.0
# free_projection: False
# n_batch: 1
# maxError: 0.001
# use_gpu: False
#
# Hostname: yichi-thinkpad
# System Type: Linux
# Machine Type: x86_64
# Processor: x86_64
# afqmc propagation with ccsd trial using 400 walkers
# system relaxing and appraching the equilibrium of the Markov Chain
# eql_step 	 sys_energy 	 zero_orb_cr 	 hf_orb_cr 	 ccsd_orb_cr 	 tot_orb_cr 	 wall_time
    0	 	 -3.331629	 0.000000	 0.000000	 -0.040852	 -0.040852	    0.00
    1	 	 -3.331824	 0.133443	 -0.029401	 -0.144710	 -0.040668	   30.07 
    2	 	 -3.332699	 0.191164	 -0.037767	 -0.194192	 -0.040795	   51.59 
    3	 	 -3.332824	 0.210703	 -0.039798	 -0.211861	 -0.040957	   56.21 
    4	 	 -3.332657	 0.200253	 -0.037806	 -0.203185	 -0.040738	   61.58 
    5	 	 -3.332645	 0.194784	 -0.037132	 -0.198335	 -0.040683	   67.42 
    6	 	 -3.332925	 0.208107	 -0.038413	 -0.210555	 -0.040862	   73.12 
# Sampling sweeps:
# iter 	 sys_energy 	 err 	 zero_orb_cr 	 err 	 hf_orb_cr 	 err 	 ccsd_orb_cr 	 err 	 tot_orb_cr 	 err 	 time
   0   -3.332893     None     0.219775     None     -0.039864     None     -0.220827     None     -0.040915     None    5.71 
   2   -3.332927   0.000295   0.217980   0.217980   -0.039525   0.001650   -0.219360   0.011735   -0.040905     None    45.95 
   4   -3.332943   0.000137   0.214974   0.214974   -0.039817   0.000627   -0.216061   0.005684   -0.040905   0.000086  56.09 
   6   -3.332890   0.000108   0.214568   0.214568   -0.039851   0.000529   -0.215652   0.003778   -0.040935   0.000075  66.67 
   8   -3.332851   0.000087   0.210770   0.210770   -0.039415   0.000456   -0.212255     None     -0.040900   0.000059  76.80 
  10   -3.332887   0.000074   0.209007   0.209007   -0.039195   0.000400   -0.210714   0.002790   -0.040901   0.000051  87.50 
  12   -3.332834   0.000066   0.206192     None     -0.038893   0.000373   -0.208166     None     -0.040866   0.000038  98.33 
  14   -3.332804   0.000059   0.204409     None     -0.038623   0.000362   -0.206652     None     -0.040865   0.000035  108.74 
  16   -3.332815   0.000053   0.204684   0.204684   -0.038743   0.000325   -0.206824     None     -0.040883   0.000033  119.62 
  18   -3.332811   0.000048   0.204008   0.204008   -0.038632   0.000300   -0.206245   0.002044   -0.040869   0.000031  130.32 
# Number of outliers in post: 0 
#
# Mean: -3.33281723e+00
# Block size    # of blocks         Mean                Error
      1              160       -3.33281723e+00       3.770513e-05
      2               80       -3.33281723e+00       4.201294e-05
      5               32       -3.33281723e+00       4.557369e-05
     10               16       -3.33281723e+00       4.073106e-05
     20                8       -3.33281723e+00       4.907116e-05
     50                3       -3.33281516e+00       6.233396e-05
# Stocahstic error estimate: 4.557369e-05
#
#
# Mean: 2.04020859e-01
# Block size    # of blocks         Mean                Error
      1              160       2.04020859e-01       2.130771e-03
      2               80       2.04020859e-01       2.211507e-03
      5               32       2.04020859e-01       2.654279e-03
     10               16       2.04020859e-01       2.870064e-03
     20                8       2.04020859e-01       3.714964e-03
     50                3       2.04158027e-01       7.773433e-03
# Stocahstic error estimate: 2.211507e-03
#
#
# Mean: -3.87032341e-02
# Block size    # of blocks         Mean                Error
      1              160       -3.87032341e-02       2.893765e-04
      2               80       -3.87032341e-02       2.874737e-04
      5               32       -3.87032341e-02       3.601612e-04
     10               16       -3.87032341e-02       3.662954e-04
     20                8       -3.87032341e-02       4.141115e-04
     50                3       -3.86604129e-02       9.111723e-04
# Stocahstic error estimate: 2.893765e-04
#
#
# Mean: -2.06194334e-01
# Block size    # of blocks         Mean                Error
      1              160       -2.06194334e-01       1.881703e-03
      2               80       -2.06194334e-01       1.965969e-03
      5               32       -2.06194334e-01       2.344566e-03
     10               16       -2.06194334e-01       2.556029e-03
     20                8       -2.06194334e-01       3.348911e-03
     50                3       -2.06365355e-01       6.911652e-03
# Stocahstic error estimate: 1.965969e-03
#
#
# Mean: -4.08767090e-02
# Block size    # of blocks         Mean                Error
      1              160       -4.08767090e-02       3.008493e-05
      2               80       -4.08767090e-02       2.937687e-05
      5               32       -4.08767090e-02       3.411428e-05
     10               16       -4.08767090e-02       3.307750e-05
     20                8       -4.08767090e-02       2.572167e-05
     50                3       -4.08677410e-02       4.875523e-05
# Stocahstic error estimate: 3.008493e-05
#
afqmc energy: -3.332817 +/- 0.000046
zero_orb_cr: 0.204021 +/- 0.204021
hf_orb_cr: -0.038703 +/- 0.000289
ccsd_orb_cr: -0.206194 +/- 0.001966
tot_orb_cr: -0.040877 +/- 0.000030
########### running fragment 3 ##########
    impsol:  1 LOs  14/30 MOs  3 occ  11 vir
    CPU time for imp sol - eri          0.02 sec, wall time      0.03 sec
    CPU time for imp sol - mp2 amp      0.02 sec, wall time      0.01 sec
    CPU time for imp sol - mp2 ene      0.00 sec, wall time      0.00 sec
    CPU time for imp sol - cc  amp      1.42 sec, wall time      0.82 sec
    CPU time for imp sol - cc  ene      0.00 sec, wall time      0.00 sec
# lno-ccsd correlation energy is: -0.04085086521409904
# Generating Cholesky Integrals
# frozen orbitals are [14 15 16 17 18 19 20 21 22 23 24 25 26 27 28 29]
# local active orbitals are [ 0  1  2  3  4  5  6  7  8  9 10 11 12 13]
# local active space size 14
# loc_eris shape: (196, 196)
# chol shape: (81, 196)
# Finished calculating Cholesky integrals

# Size of the correlation space:
# Number of electrons: (3, 3)
# Number of basis functions: 14
# Number of Cholesky vectors: 81

# Hostname: yichi-thinkpad
# System Type: Linux
# Machine Type: x86_64
# Processor: x86_64
# Number of MPI ranks: 8
#
# norb: 14
# nelec: (3, 3)
#
# n_eql: 6
# n_prop_steps: 20
# n_ene_blocks: 1
# n_sr_blocks: 10
# n_blocks: 20
# n_walkers: 50
# seed: 2
# walker_type: rhf
# trial: cisd
# dt: 0.01
# n_exp_terms: 6
# orbital_rotation: True
# do_sr: True
# symmetry: False
# save_walkers: False
# ene0: 0.0
# free_projection: False
# n_batch: 1
# maxError: 0.001
# use_gpu: False
#
# Hostname: yichi-thinkpad
# System Type: Linux
# Machine Type: x86_64
# Processor: x86_64
# afqmc propagation with ccsd trial using 400 walkers
# system relaxing and appraching the equilibrium of the Markov Chain
# eql_step 	 sys_energy 	 zero_orb_cr 	 hf_orb_cr 	 ccsd_orb_cr 	 tot_orb_cr 	 wall_time
    0	 	 -3.331629	 0.000000	 0.000000	 -0.040852	 -0.040852	    0.00
    1	 	 -3.331732	 0.130996	 -0.028465	 -0.143135	 -0.040604	   28.92 
    2	 	 -3.332547	 0.188104	 -0.037301	 -0.191548	 -0.040745	   50.30 
    3	 	 -3.332578	 0.215626	 -0.040530	 -0.216048	 -0.040952	   55.90 
    4	 	 -3.332645	 0.196266	 -0.037897	 -0.199336	 -0.040967	   61.68 
    5	 	 -3.332968	 0.197857	 -0.038544	 -0.200407	 -0.041094	   67.34 
    6	 	 -3.332954	 0.207478	 -0.040013	 -0.208496	 -0.041030	   73.13 
# Sampling sweeps:
# iter 	 sys_energy 	 err 	 zero_orb_cr 	 err 	 hf_orb_cr 	 err 	 ccsd_orb_cr 	 err 	 tot_orb_cr 	 err 	 time
   0   -3.332585     None     0.189205     None     -0.036251     None     -0.193804     None     -0.040850     None    5.76 
   2   -3.332594   0.000090   0.188849   0.188849   -0.036426   0.000811   -0.193347   0.004728   -0.040923   0.000086  47.37 
   4   -3.332685   0.000080   0.193944   0.193944   -0.037224   0.000676   -0.197665   0.004173   -0.040945   0.000061  57.31 
   6   -3.332737   0.000077   0.195816   0.195816   -0.037608   0.000524   -0.199202   0.003323   -0.040994   0.000054  68.83 
   8   -3.332717   0.000062   0.198959   0.198959   -0.038086   0.000471   -0.201841   0.002850   -0.040968   0.000045  79.17 
  10   -3.332731   0.000060   0.199325   0.199325   -0.038174   0.000426   -0.202129   0.002555   -0.040978   0.000038  90.19 
  12   -3.332732   0.000046   0.200717   0.200717   -0.038269   0.000398   -0.203408   0.002588   -0.040961   0.000036  101.04 
  14   -3.332735   0.000043   0.201258   0.201258   -0.038327   0.000383   -0.203879   0.002507   -0.040948   0.000033  111.59 
  16   -3.332742   0.000039   0.201084   0.201084   -0.038293   0.000345   -0.203722   0.002285   -0.040930   0.000032  122.36 
  18   -3.332723   0.000037   0.200216   0.200216   -0.038243   0.000314   -0.202887   0.002109   -0.040914   0.000030  134.10 
# Number of outliers in post: 0 
#
# Mean: -3.33271854e+00
# Block size    # of blocks         Mean                Error
      1              160       -3.33271854e+00       3.515405e-05
      2               80       -3.33271854e+00       3.601114e-05
      5               32       -3.33271854e+00       3.832084e-05
     10               16       -3.33271854e+00       4.151593e-05
     20                8       -3.33271854e+00       3.622673e-05
     50                3       -3.33272596e+00       2.318743e-05
# Stocahstic error estimate: 3.601114e-05
#
#
# Mean: 1.99906639e-01
# Block size    # of blocks         Mean                Error
      1              160       1.99906639e-01       2.310056e-03
      2               80       1.99906639e-01       2.313420e-03
      5               32       1.99906639e-01       2.240595e-03
     10               16       1.99906639e-01       2.895993e-03
     20                8       1.99906639e-01       2.861929e-03
     50                3       2.00297158e-01       3.787798e-03
# Stocahstic error estimate: 2.313420e-03
#
#
# Mean: -3.82022659e-02
# Block size    # of blocks         Mean                Error
      1              160       -3.82022659e-02       2.981492e-04
      2               80       -3.82022659e-02       3.061369e-04
      5               32       -3.82022659e-02       3.080048e-04
     10               16       -3.82022659e-02       3.966284e-04
     20                8       -3.82022659e-02       3.862313e-04
     50                3       -3.82527418e-02       5.354622e-04
# Stocahstic error estimate: 3.061369e-04
#
#
# Mean: -2.02612642e-01
# Block size    # of blocks         Mean                Error
      1              160       -2.02612642e-01       2.039942e-03
      2               80       -2.02612642e-01       2.037454e-03
      5               32       -2.02612642e-01       1.955298e-03
     10               16       -2.02612642e-01       2.524713e-03
     20                8       -2.02612642e-01       2.496198e-03
     50                3       -2.02956392e-01       3.222838e-03
# Stocahstic error estimate: 2.039942e-03
#
#
# Mean: -4.09082690e-02
# Block size    # of blocks         Mean                Error
      1              160       -4.09082690e-02       2.925751e-05
      2               80       -4.09082690e-02       2.636578e-05
      5               32       -4.09082690e-02       2.854023e-05
     10               16       -4.09082690e-02       3.373951e-05
     20                8       -4.09082690e-02       3.733127e-05
     50                3       -4.09119765e-02       5.633420e-05
# Stocahstic error estimate: 2.925751e-05
#
afqmc energy: -3.332719 +/- 0.000036
zero_orb_cr: 0.199907 +/- 0.199907
hf_orb_cr: -0.038202 +/- 0.000306
ccsd_orb_cr: -0.202613 +/- 0.002040
tot_orb_cr: -0.040908 +/- 0.000029
