# Hostname: yichi-thinkpad
# System Type: Linux
# Machine Type: x86_64
# Processor: x86_64
#INFO: **** input file is /home/yichi/research/software/cs_afqmc/ad_afqmc/lnocc/hchain/test/test.py ****
import sys, os
import numpy as np
from functools import reduce
from pyscf.lib import logger
from ad_afqmc.lno.cc import LNOCCSD
from ad_afqmc import lno_ccsd
from pyscf import gto, scf, mp, cc
from ad_afqmc.lno.base import lno
from ad_afqmc.lno.afqmc import LNOAFQMC

log = logger.Logger(sys.stdout, 6)

a = 0.9
nH = 6
atoms = ""
for i in range(nH):
    atoms += f"H {i*a} 0 0 \n"

mol = gto.M(atom=atoms, basis="ccpvdz", verbose=4)
mf = scf.RHF(mol).density_fit()
mf.kernel()

# frozen = 0
# mmp = mp.MP2(mf,frozen=frozen)
# mmp.kernel()[0]

# # cc
# mycc = cc.CCSD(mf)
# mycc.kernel()
# et = mycc.ccsd_t()

# fci
#cisolver = fci.FCI(mf)
#fci_ene, fci_vec = cisolver.kernel()

# print(f'rhf energy is {mf.e_tot}')
# print(f"ccsd energy is {mycc.e_tot}")
# print(f"ccsd_t energy is {mycc.e_tot+et}")
# print(f"ccsd correlation energy is {mycc.e_corr}")

options = {'n_eql': 6,
           'n_prop_steps': 20,
            'n_ene_blocks': 1,
            'n_sr_blocks': 10,
            'n_blocks': 20,
            'n_walkers': 50,
            'seed': 2,
            'walker_type': 'rhf',
            'trial': 'cisd',
            'dt':0.01,
            'ad_mode':None,
            }


thresh = 6.04e-05
lno_ccsd.run_lno_ccsd_afqmc(mf,thresh,[],options,1e-6,8)#INFO: ******************** input file end ********************


System: uname_result(system='Linux', node='yichi-thinkpad', release='4.4.0-26100-Microsoft', version='#1882-Microsoft Fri Jan 01 08:00:00 PST 2016', machine='x86_64')  Threads 12
Python 3.10.16 | packaged by conda-forge | (main, Dec  5 2024, 14:16:10) [GCC 13.3.0]
numpy 1.24.3  scipy 1.14.1  h5py 3.12.1
Date: Sun Jun 15 15:11:54 2025
PySCF version 2.8.0
PySCF path  /home/yichi/research/software/lno_pyscf
GIT HEAD (branch master) ef75f4190e4de208685670651dc6c467f72b6794

[ENV] PYSCF_EXT_PATH /home/yichi/research/software/pyscf
[CONFIG] conf_file None
[INPUT] verbose = 4
[INPUT] num. atoms = 6
[INPUT] num. electrons = 6
[INPUT] charge = 0
[INPUT] spin (= nelec alpha-beta = 2S) = 0
[INPUT] symmetry False subgroup None
[INPUT] Mole.unit = angstrom
[INPUT] Symbol           X                Y                Z      unit          X                Y                Z       unit  Magmom
[INPUT]  1 H      0.000000000000   0.000000000000   0.000000000000 AA    0.000000000000   0.000000000000   0.000000000000 Bohr   0.0
[INPUT]  2 H      0.900000000000   0.000000000000   0.000000000000 AA    1.700753512109   0.000000000000   0.000000000000 Bohr   0.0
[INPUT]  3 H      1.800000000000   0.000000000000   0.000000000000 AA    3.401507024217   0.000000000000   0.000000000000 Bohr   0.0
[INPUT]  4 H      2.700000000000   0.000000000000   0.000000000000 AA    5.102260536326   0.000000000000   0.000000000000 Bohr   0.0
[INPUT]  5 H      3.600000000000   0.000000000000   0.000000000000 AA    6.803014048434   0.000000000000   0.000000000000 Bohr   0.0
[INPUT]  6 H      4.500000000000   0.000000000000   0.000000000000 AA    8.503767560543   0.000000000000   0.000000000000 Bohr   0.0

nuclear repulsion = 5.11537970556
number of shells = 18
number of NR pGTOs = 42
number of NR cGTOs = 30
basis = ccpvdz
ecp = {}
CPU time:         1.00


******** <class 'pyscf.df.df_jk.DFRHF'> ********
method = DFRHF
initial guess = minao
damping factor = 0
level_shift factor = 0
DIIS = <class 'pyscf.scf.diis.CDIIS'>
diis_start_cycle = 1
diis_space = 8
diis_damp = 0
SCF conv_tol = 1e-09
SCF conv_tol_grad = None
SCF max_cycles = 50
direct_scf = False
chkfile to save SCF result = /tmp/tmpjfl8beq6
max_memory 4000 MB (current use 145 MB)
Set gradient conv threshold to 3.16228e-05
Initial guess from minao.
******** <class 'pyscf.df.df.DF'> ********
auxbasis = None
max_memory = 4000
Default auxbasis cc-pvdz-jkfit is used for H ccpvdz
init E= -2.67700584552365
  HOMO = -0.262674844680972  LUMO = 0.0388295651460735
cycle= 1 E= -3.23301970436705  delta_E= -0.556  |g|= 0.126  |ddm|= 1.36
  HOMO = -0.389482660690849  LUMO = 0.0819106069595272
cycle= 2 E= -3.24210600516978  delta_E= -0.00909  |g|= 0.0338  |ddm|= 0.435
  HOMO = -0.381871045027767  LUMO = 0.100126545036023
cycle= 3 E= -3.24297627084339  delta_E= -0.00087  |g|= 0.0087  |ddm|= 0.195
  HOMO = -0.384945731936204  LUMO = 0.101678747618444
cycle= 4 E= -3.2430400898962  delta_E= -6.38e-05  |g|= 0.00138  |ddm|= 0.0652
  HOMO = -0.38527201108904  LUMO = 0.101890915486509
cycle= 5 E= -3.24304154650484  delta_E= -1.46e-06  |g|= 8.99e-05  |ddm|= 0.00832
  HOMO = -0.385281904191847  LUMO = 0.101916839372168
cycle= 6 E= -3.24304155130022  delta_E= -4.8e-09  |g|= 6.27e-06  |ddm|= 0.000271
  HOMO = -0.38527850241131  LUMO = 0.101917817626686
cycle= 7 E= -3.24304155132317  delta_E= -2.3e-11  |g|= 6.67e-07  |ddm|= 2.43e-05
  HOMO = -0.385278522425687  LUMO = 0.101918056101891
Extra cycle  E= -3.2430415513234  delta_E= -2.26e-13  |g|= 1.63e-07  |ddm|= 5.55e-06
converged SCF energy = -3.2430415513234
no_type = ie
lo_type = pm
LOs span exactly the occupied space.
Using single-LO fragment
nfrag = 3  nlo = 3
frag_atmlist = None
frag_lolist = [[0], [1], [2]]
frag_nonvlist = None
Lov is saved to /tmp/tf8dps4w
########### running fragment 1 ##########
    impsol:  1 LOs  15/30 MOs  3 occ  12 vir
    CPU time for imp sol - eri          0.02 sec, wall time      0.02 sec
    CPU time for imp sol - mp2 amp      0.05 sec, wall time      0.00 sec
    CPU time for imp sol - mp2 ene      0.00 sec, wall time      0.00 sec
    CPU time for imp sol - cc  amp      0.20 sec, wall time      0.20 sec
    CPU time for imp sol - cc  ene      0.00 sec, wall time      0.00 sec
# lno-ccsd correlation energy is: -0.04296733223557163
# Generating Cholesky Integrals
# frozen orbitals are [15 16 17 18 19 20 21 22 23 24 25 26 27 28 29]
# local active orbitals are [ 0  1  2  3  4  5  6  7  8  9 10 11 12 13 14]
# local active space size 15
# loc_eris shape: (225, 225)
# chol shape: (88, 225)
# Finished calculating Cholesky integrals

# Size of the correlation space:
# Number of electrons: (3, 3)
# Number of basis functions: 15
# Number of Cholesky vectors: 88

# Hostname: yichi-thinkpad
# System Type: Linux
# Machine Type: x86_64
# Processor: x86_64
# Number of MPI ranks: 8
#
# norb: 15
# nelec: (3, 3)
#
# n_eql: 6
# n_prop_steps: 20
# n_ene_blocks: 1
# n_sr_blocks: 10
# n_blocks: 20
# n_walkers: 50
# seed: 2
# walker_type: rhf
# trial: cisd
# dt: 0.01
# n_exp_terms: 6
# orbital_rotation: True
# do_sr: True
# symmetry: False
# save_walkers: False
# ene0: 0.0
# free_projection: False
# n_batch: 1
# maxError: 0.001
# use_gpu: False
#
# Hostname: yichi-thinkpad
# System Type: Linux
# Machine Type: x86_64
# Processor: x86_64
# afqmc propagation with ccsd trial using 400 walkers
# system relaxing and appraching the equilibrium of the Markov Chain
# eql_step 	 sys_energy 	 zero_orb_cr 	 hf_orb_cr 	 ccsd_orb_cr 	 tot_orb_cr 	 wall_time
    0	 	 -3.344399	 0.000000	 0.000000	 -0.042974	 -0.042974	    0.00
    1	 	 -3.344612	 0.134069	 -0.031020	 -0.145900	 -0.042850	   32.28 
    2	 	 -3.346134	 0.192705	 -0.038784	 -0.196957	 -0.043035	   54.71 
    3	 	 -3.346212	 0.204954	 -0.041039	 -0.207204	 -0.043289	   60.75 
    4	 	 -3.346233	 0.203133	 -0.040303	 -0.206104	 -0.043274	   67.38 
    5	 	 -3.345996	 0.204104	 -0.040139	 -0.207004	 -0.043040	   73.76 
    6	 	 -3.346238	 0.213984	 -0.040719	 -0.216225	 -0.042960	   80.59 
# Sampling sweeps:
# iter 	 sys_energy 	 err 	 zero_orb_cr 	 err 	 hf_orb_cr 	 err 	 ccsd_orb_cr 	 err 	 tot_orb_cr 	 err 	 time
   0   -3.345925   0.000096   0.206066     None     -0.038793     None     -0.210236     None     -0.042964   0.000086  6.98 
   2   -3.346017   0.000097   0.204387   0.204387   -0.039045   0.000575   -0.208361   0.004109   -0.043019   0.000061  46.08 
   4   -3.345902   0.000071   0.204406   0.204406   -0.039076   0.000485   -0.208337   0.003489   -0.043007   0.000043  58.90 
   6   -3.345952   0.000073   0.212623   0.212623   -0.039973   0.000526   -0.215694   0.003811   -0.043045   0.000042  72.05 
   8   -3.345968   0.000074   0.212975   0.212975   -0.040124   0.000465   -0.215917   0.003315   -0.043067   0.000038  84.79 
  10   -3.345962   0.000064   0.211300   0.211300   -0.040078   0.000416   -0.214294   0.002941   -0.043072   0.000033  96.95 
  12   -3.345945   0.000057   0.209869   0.209869   -0.040010   0.000373   -0.212928   0.002649   -0.043069   0.000030  109.29 
  14   -3.345913   0.000051   0.209174   0.209174   -0.039920   0.000337   -0.212321   0.002464   -0.043068   0.000027  122.02 
  16   -3.345894   0.000049   0.209504   0.209504   -0.039939   0.000323   -0.212626   0.002278   -0.043061   0.000026  134.94 
  18   -3.345916   0.000046   0.209179   0.209179   -0.039920   0.000304   -0.212322   0.002162   -0.043063   0.000025  146.90 
# Number of outliers in post: 0 
#
# Mean: -3.34592488e+00
# Block size    # of blocks         Mean                Error
      1              160       -3.34592488e+00       4.490424e-05
      2               80       -3.34592488e+00       3.854317e-05
      5               32       -3.34592488e+00       4.221454e-05
     10               16       -3.34592488e+00       4.905540e-05
     20                8       -3.34592488e+00       5.944804e-05
     50                3       -3.34591658e+00       3.923608e-05
# Stocahstic error estimate: 4.490424e-05
#
#
# Mean: 2.08996854e-01
# Block size    # of blocks         Mean                Error
      1              160       2.08996854e-01       2.306548e-03
      2               80       2.08996854e-01       2.316685e-03
      5               32       2.08996854e-01       2.681387e-03
     10               16       2.08996854e-01       2.473229e-03
     20                8       2.08996854e-01       3.275306e-03
     50                3       2.09433456e-01       1.987185e-04
# Stocahstic error estimate: 2.316685e-03
#
#
# Mean: -3.99332698e-02
# Block size    # of blocks         Mean                Error
      1              160       -3.99332698e-02       2.934056e-04
      2               80       -3.99332698e-02       2.839412e-04
      5               32       -3.99332698e-02       2.912169e-04
     10               16       -3.99332698e-02       2.745101e-04
     20                8       -3.99332698e-02       3.643874e-04
     50                3       -3.99398602e-02       1.447609e-04
# Stocahstic error estimate: 2.934056e-04
#
#
# Mean: -2.12127762e-01
# Block size    # of blocks         Mean                Error
      1              160       -2.12127762e-01       2.048342e-03
      2               80       -2.12127762e-01       2.061841e-03
      5               32       -2.12127762e-01       2.417617e-03
     10               16       -2.12127762e-01       2.239568e-03
     20                8       -2.12127762e-01       2.956237e-03
     50                3       -2.12556782e-01       2.159183e-04
# Stocahstic error estimate: 2.061841e-03
#
#
# Mean: -4.30641772e-02
# Block size    # of blocks         Mean                Error
      1              160       -4.30641772e-02       2.473478e-05
      2               80       -4.30641772e-02       2.268568e-05
      5               32       -4.30641772e-02       2.337757e-05
     10               16       -4.30641772e-02       2.304412e-05
     20                8       -4.30641772e-02       2.564257e-05
     50                3       -4.30631860e-02       1.876934e-05
# Stocahstic error estimate: 2.473478e-05
#
afqmc energy: -3.345925 +/- 0.000045
zero_orb_cr: 0.208997 +/- 0.208997
hf_orb_cr: -0.039933 +/- 0.000293
ccsd_orb_cr: -0.212128 +/- 0.002062
tot_orb_cr: -0.043064 +/- 0.000025
########### running fragment 2 ##########
    impsol:  1 LOs  13/30 MOs  3 occ  10 vir
    CPU time for imp sol - eri          0.02 sec, wall time      0.02 sec
    CPU time for imp sol - mp2 amp      0.00 sec, wall time      0.01 sec
    CPU time for imp sol - mp2 ene      0.00 sec, wall time      0.00 sec
    CPU time for imp sol - cc  amp      1.12 sec, wall time      0.68 sec
    CPU time for imp sol - cc  ene      0.00 sec, wall time      0.00 sec
# lno-ccsd correlation energy is: -0.04052121802205259
# Generating Cholesky Integrals
# frozen orbitals are [13 14 15 16 17 18 19 20 21 22 23 24 25 26 27 28 29]
# local active orbitals are [ 0  1  2  3  4  5  6  7  8  9 10 11 12]
# local active space size 13
# loc_eris shape: (169, 169)
# chol shape: (73, 169)
# Finished calculating Cholesky integrals

# Size of the correlation space:
# Number of electrons: (3, 3)
# Number of basis functions: 13
# Number of Cholesky vectors: 73

# Hostname: yichi-thinkpad
# System Type: Linux
# Machine Type: x86_64
# Processor: x86_64
# Number of MPI ranks: 8
#
# norb: 13
# nelec: (3, 3)
#
# n_eql: 6
# n_prop_steps: 20
# n_ene_blocks: 1
# n_sr_blocks: 10
# n_blocks: 20
# n_walkers: 50
# seed: 2
# walker_type: rhf
# trial: cisd
# dt: 0.01
# n_exp_terms: 6
# orbital_rotation: True
# do_sr: True
# symmetry: False
# save_walkers: False
# ene0: 0.0
# free_projection: False
# n_batch: 1
# maxError: 0.001
# use_gpu: False
#
# Hostname: yichi-thinkpad
# System Type: Linux
# Machine Type: x86_64
# Processor: x86_64
# afqmc propagation with ccsd trial using 400 walkers
# system relaxing and appraching the equilibrium of the Markov Chain
# eql_step 	 sys_energy 	 zero_orb_cr 	 hf_orb_cr 	 ccsd_orb_cr 	 tot_orb_cr 	 wall_time
    0	 	 -3.320454	 0.000000	 0.000000	 -0.040524	 -0.040524	    0.00
    1	 	 -3.320854	 0.145587	 -0.030955	 -0.155192	 -0.040560	   28.93 
    2	 	 -3.321294	 0.190885	 -0.037554	 -0.194003	 -0.040672	   48.00 
    3	 	 -3.321357	 0.197042	 -0.037849	 -0.199709	 -0.040516	   51.70 
    4	 	 -3.321662	 0.207005	 -0.039508	 -0.208187	 -0.040690	   55.96 
    5	 	 -3.321429	 0.202661	 -0.038985	 -0.204263	 -0.040587	   60.44 
    6	 	 -3.321694	 0.204844	 -0.038820	 -0.206749	 -0.040725	   64.95 
# Sampling sweeps:
# iter 	 sys_energy 	 err 	 zero_orb_cr 	 err 	 hf_orb_cr 	 err 	 ccsd_orb_cr 	 err 	 tot_orb_cr 	 err 	 time
   0   -3.321463     None     0.196051     None     -0.036638     None     -0.200107   0.008605   -0.040694   0.000096  4.77 
   2   -3.321465   0.000094   0.200890   0.200890   -0.037749   0.000850   -0.203853   0.005461   -0.040711   0.000075  44.49 
   4   -3.321463   0.000073   0.200424   0.200424   -0.037890   0.000643   -0.203267   0.003888   -0.040733   0.000059  52.94 
   6   -3.321379   0.000060   0.198803   0.198803   -0.037633   0.000545   -0.201808   0.003451   -0.040637   0.000070  62.07 
   8   -3.321390   0.000051   0.201801   0.201801   -0.037952   0.000482   -0.204428   0.003183   -0.040580     None    70.91 
  10   -3.321374   0.000043   0.200618   0.200618   -0.037791   0.000404   -0.203399   0.002660   -0.040572     None    79.75 
  12   -3.321383   0.000040   0.202194   0.202194   -0.038077   0.000379   -0.204677   0.002474   -0.040559   0.000035  88.10 
  14   -3.321407   0.000039   0.201993   0.201993   -0.038068   0.000363   -0.204500   0.002308   -0.040576   0.000035  97.44 
  16   -3.321416   0.000037   0.201575   0.201575   -0.038003   0.000351   -0.204146   0.002170   -0.040574   0.000034  106.50 
  18   -3.321417   0.000034   0.200240   0.200240   -0.037841   0.000332   -0.202975   0.002064   -0.040576   0.000032  115.10 
# Number of outliers in post: 0 
#
# Mean: -3.32140932e+00
# Block size    # of blocks         Mean                Error
      1              160       -3.32140932e+00       3.245470e-05
      2               80       -3.32140932e+00       3.231510e-05
      5               32       -3.32140932e+00       3.142356e-05
     10               16       -3.32140932e+00       2.982218e-05
     20                8       -3.32140932e+00       3.846472e-05
     50                3       -3.32141460e+00       4.821713e-05
# Stocahstic error estimate: 3.245470e-05
#
#
# Mean: 2.00075944e-01
# Block size    # of blocks         Mean                Error
      1              160       2.00075944e-01       2.121715e-03
      2               80       2.00075944e-01       2.261296e-03
      5               32       2.00075944e-01       2.063531e-03
     10               16       2.00075944e-01       2.480683e-03
     20                8       2.00075944e-01       1.642568e-03
     50                3       2.00326446e-01       3.218266e-03
# Stocahstic error estimate: 2.261296e-03
#
#
# Mean: -3.78613398e-02
# Block size    # of blocks         Mean                Error
      1              160       -3.78613398e-02       2.965490e-04
      2               80       -3.78613398e-02       3.165495e-04
      5               32       -3.78613398e-02       2.790407e-04
     10               16       -3.78613398e-02       3.436706e-04
     20                8       -3.78613398e-02       2.186581e-04
     50                3       -3.78398734e-02       3.606533e-04
# Stocahstic error estimate: 3.165495e-04
#
#
# Mean: -2.02795740e-01
# Block size    # of blocks         Mean                Error
      1              160       -2.02795740e-01       1.847626e-03
      2               80       -2.02795740e-01       1.965589e-03
      5               32       -2.02795740e-01       1.801587e-03
     10               16       -2.02795740e-01       2.150966e-03
     20                8       -2.02795740e-01       1.426889e-03
     50                3       -2.03060304e-01       2.795877e-03
# Stocahstic error estimate: 1.965589e-03
#
#
# Mean: -4.05811361e-02
# Block size    # of blocks         Mean                Error
      1              160       -4.05811361e-02       3.064774e-05
      2               80       -4.05811361e-02       3.173451e-05
      5               32       -4.05811361e-02       2.959043e-05
     10               16       -4.05811361e-02       3.282201e-05
     20                8       -4.05811361e-02       4.599632e-05
     50                3       -4.05737323e-02       7.587210e-05
# Stocahstic error estimate: 3.173451e-05
#
afqmc energy: -3.321409 +/- 0.000032
zero_orb_cr: 0.200076 +/- 0.200076
hf_orb_cr: -0.037861 +/- 0.000317
ccsd_orb_cr: -0.202796 +/- 0.001966
tot_orb_cr: -0.040581 +/- 0.000032
########### running fragment 3 ##########
    impsol:  1 LOs  13/30 MOs  3 occ  10 vir
    CPU time for imp sol - eri          0.02 sec, wall time      0.02 sec
    CPU time for imp sol - mp2 amp      0.00 sec, wall time      0.01 sec
    CPU time for imp sol - mp2 ene      0.00 sec, wall time      0.00 sec
    CPU time for imp sol - cc  amp      0.97 sec, wall time      0.72 sec
    CPU time for imp sol - cc  ene      0.00 sec, wall time      0.00 sec
# lno-ccsd correlation energy is: -0.04052121491461156
# Generating Cholesky Integrals
# frozen orbitals are [13 14 15 16 17 18 19 20 21 22 23 24 25 26 27 28 29]
# local active orbitals are [ 0  1  2  3  4  5  6  7  8  9 10 11 12]
# local active space size 13
# loc_eris shape: (169, 169)
# chol shape: (73, 169)
# Finished calculating Cholesky integrals

# Size of the correlation space:
# Number of electrons: (3, 3)
# Number of basis functions: 13
# Number of Cholesky vectors: 73

# Hostname: yichi-thinkpad
# System Type: Linux
# Machine Type: x86_64
# Processor: x86_64
# Number of MPI ranks: 8
#
# norb: 13
# nelec: (3, 3)
#
# n_eql: 6
# n_prop_steps: 20
# n_ene_blocks: 1
# n_sr_blocks: 10
# n_blocks: 20
# n_walkers: 50
# seed: 2
# walker_type: rhf
# trial: cisd
# dt: 0.01
# n_exp_terms: 6
# orbital_rotation: True
# do_sr: True
# symmetry: False
# save_walkers: False
# ene0: 0.0
# free_projection: False
# n_batch: 1
# maxError: 0.001
# use_gpu: False
#
# Hostname: yichi-thinkpad
# System Type: Linux
# Machine Type: x86_64
# Processor: x86_64
# afqmc propagation with ccsd trial using 400 walkers
# system relaxing and appraching the equilibrium of the Markov Chain
# eql_step 	 sys_energy 	 zero_orb_cr 	 hf_orb_cr 	 ccsd_orb_cr 	 tot_orb_cr 	 wall_time
    0	 	 -3.320454	 0.000000	 0.000000	 -0.040524	 -0.040524	    0.00
    1	 	 -3.320875	 0.141552	 -0.030349	 -0.151692	 -0.040489	   29.66 
    2	 	 -3.321371	 0.189101	 -0.037817	 -0.191745	 -0.040460	   48.69 
    3	 	 -3.321519	 0.198786	 -0.038771	 -0.200549	 -0.040534	   52.47 
    4	 	 -3.321458	 0.191684	 -0.037978	 -0.194402	 -0.040695	   56.78 
    5	 	 -3.321226	 0.190078	 -0.037487	 -0.193020	 -0.040429	   61.47 
    6	 	 -3.321572	 0.208565	 -0.039190	 -0.210102	 -0.040726	   65.94 
# Sampling sweeps:
# iter 	 sys_energy 	 err 	 zero_orb_cr 	 err 	 hf_orb_cr 	 err 	 ccsd_orb_cr 	 err 	 tot_orb_cr 	 err 	 time
   0   -3.321534   0.000191   0.216709   0.216709   -0.040134   0.001585   -0.217215   0.011077   -0.040640   0.000199  4.59 
   2   -3.321513   0.000085   0.205485     None     -0.039184     None     -0.206938     None     -0.040637   0.000075  45.01 
   4   -3.321509   0.000075   0.203546   0.203546   -0.038581   0.000563   -0.205535   0.004227   -0.040571   0.000058  54.35 
   6   -3.321460   0.000056   0.199406   0.199406   -0.038059   0.000468   -0.201880   0.003371   -0.040533   0.000046  63.55 
   8   -3.321497   0.000056   0.201038   0.201038   -0.038400   0.000539   -0.203197   0.002876   -0.040559   0.000041  72.53 
  10   -3.321473   0.000048   0.200602   0.200602   -0.038346   0.000406   -0.202828   0.002644   -0.040571   0.000035  81.42 
  12   -3.321472   0.000043   0.201419   0.201419   -0.038373   0.000372   -0.203606   0.002506   -0.040559   0.000032  89.77 
  14   -3.321461   0.000040   0.201203   0.201203   -0.038354   0.000348   -0.203409   0.002322   -0.040560   0.000030  98.38 
  16   -3.321440   0.000037   0.200191   0.200191   -0.038137   0.000321   -0.202613   0.002120   -0.040559   0.000027  106.96 
  18   -3.321440   0.000034   0.201436   0.201436   -0.038258   0.000317   -0.203734   0.002035   -0.040556   0.000026  115.40 
# Number of outliers in post: 0 
#
# Mean: -3.32143010e+00
# Block size    # of blocks         Mean                Error
      1              160       -3.32143010e+00       3.249434e-05
      2               80       -3.32143010e+00       3.126392e-05
      5               32       -3.32143010e+00       3.430546e-05
     10               16       -3.32143010e+00       3.305583e-05
     20                8       -3.32143010e+00       2.918564e-05
     50                3       -3.32144344e+00       4.693204e-05
# Stocahstic error estimate: 3.249434e-05
#
#
# Mean: 2.01561219e-01
# Block size    # of blocks         Mean                Error
      1              160       2.01561219e-01       2.207665e-03
      2               80       2.01561219e-01       2.156143e-03
      5               32       2.01561219e-01       2.292658e-03
     10               16       2.01561219e-01       2.412947e-03
     20                8       2.01561219e-01       2.418790e-03
     50                3       2.00985177e-01       1.162173e-03
# Stocahstic error estimate: 2.207665e-03
#
#
# Mean: -3.82791291e-02
# Block size    # of blocks         Mean                Error
      1              160       -3.82791291e-02       2.962475e-04
      2               80       -3.82791291e-02       3.027738e-04
      5               32       -3.82791291e-02       3.277226e-04
     10               16       -3.82791291e-02       3.261526e-04
     20                8       -3.82791291e-02       3.590041e-04
     50                3       -3.82089274e-02       3.106552e-04
# Stocahstic error estimate: 3.027738e-04
#
#
# Mean: -2.03831620e-01
# Block size    # of blocks         Mean                Error
      1              160       -2.03831620e-01       1.943561e-03
      2               80       -2.03831620e-01       1.882402e-03
      5               32       -2.03831620e-01       1.988549e-03
     10               16       -2.03831620e-01       2.110144e-03
     20                8       -2.03831620e-01       2.083901e-03
     50                3       -2.03333810e-01       8.678991e-04
# Stocahstic error estimate: 1.943561e-03
#
#
# Mean: -4.05495305e-02
# Block size    # of blocks         Mean                Error
      1              160       -4.05495305e-02       2.490807e-05
      2               80       -4.05495305e-02       2.435539e-05
      5               32       -4.05495305e-02       2.329142e-05
     10               16       -4.05495305e-02       2.033535e-05
     20                8       -4.05495305e-02       1.421836e-05
     50                3       -4.05575602e-02       1.408156e-05
# Stocahstic error estimate: 2.490807e-05
#
afqmc energy: -3.321430 +/- 0.000032
zero_orb_cr: 0.201561 +/- 0.201561
hf_orb_cr: -0.038279 +/- 0.000303
ccsd_orb_cr: -0.203832 +/- 0.001944
tot_orb_cr: -0.040550 +/- 0.000025
