[Molden Format]
made by pyscf v[2.1.0]
[Atoms] (AU)
C   1   6     2.32946917320360    -0.63344186613258     2.37168943427863
C   2   6    -0.29669267073509     0.30039086476086     3.22269546913239
C   3   6    -2.28836574026819    -0.45088865332122     1.27613394164491
C   4   6    -1.50258360260379     0.48150977544368    -1.34195877174189
C   5   6     1.17077037184366    -0.47613539434541    -1.98531603085006
O   6   8     2.90615122545875     0.36947547242271    -0.06380660259594
O   7   8    -1.02480036707776    -0.78170410868758     5.58840958940515
O   8   8    -4.71990091118567     0.61286652808832     1.81907682367207
O   9   8    -3.21856263809797    -0.39246777018029    -3.24986406162526
C   10   6     2.14873576665020     0.54311106765225    -4.52137384344336
O   11   8     0.97527064535291    -0.64120108160005    -6.63217335814292
H   12   1     0.34900595904142    -0.48214283369541     6.76077111064570
H   13   1    -5.19719092819319     0.02690592056156     3.48444332437202
H   14   1    -0.83535721281623    -0.49952075513691    -6.37469817367093
H   15   1    -4.90002393620084     0.08874342853570    -2.71063260170675
O   16   8     4.22615893853768     0.10859122202201     4.07505454789134
H   17   1     4.38166639105427     1.93178575891951     3.94362220620171
H   18   1     2.36505838530753    -2.71537014510103     2.34202262384909
H   19   1    -0.22188597236806     2.38358526023277     3.34538215831753
H   20   1    -2.40897751016855    -2.53158672058258     1.22868291865708
H   21   1    -1.45404220764209     2.56502731408288    -1.31752650267738
H   22   1     1.14953551938192    -2.55944317338479    -2.06041941621865
H   23   1     1.89192576577406     2.61534694132780    -4.54974430175146
H   24   1     4.17463555575142     0.13656105839169    -4.65046670419078
[GTO]
1 0
 s    8 1.00
                  6665  0.00069158396281299
                  1000  0.0053257961529341
                   228   0.027060721042034
                 64.71    0.10165684614077
                 21.06     0.2745748236174
                 7.495    0.44829431892377
                 2.797    0.28490261071525
                0.5215   0.015194859206082
 s    8 1.00
                  6665  -0.00029326965268655
                  1000  -0.0023180354739745
                   228  -0.011499786038565
                 64.71  -0.046826727009787
                 21.06   -0.12846616875047
                 7.495   -0.30126627246289
                 2.797   -0.25563070233011
                0.5215      1.093793361012
 s    1 1.00
                0.1596                   1
 p    3 1.00
                 9.439   0.056979251590039
                 2.002    0.31320721150073
                0.5456    0.76037674173753
 p    1 1.00
                0.1517                   1
 d    1 1.00
                  0.55                   1

2 0
 s    8 1.00
                  6665  0.00069158396281299
                  1000  0.0053257961529341
                   228   0.027060721042034
                 64.71    0.10165684614077
                 21.06     0.2745748236174
                 7.495    0.44829431892377
                 2.797    0.28490261071525
                0.5215   0.015194859206082
 s    8 1.00
                  6665  -0.00029326965268655
                  1000  -0.0023180354739745
                   228  -0.011499786038565
                 64.71  -0.046826727009787
                 21.06   -0.12846616875047
                 7.495   -0.30126627246289
                 2.797   -0.25563070233011
                0.5215      1.093793361012
 s    1 1.00
                0.1596                   1
 p    3 1.00
                 9.439   0.056979251590039
                 2.002    0.31320721150073
                0.5456    0.76037674173753
 p    1 1.00
                0.1517                   1
 d    1 1.00
                  0.55                   1

3 0
 s    8 1.00
                  6665  0.00069158396281299
                  1000  0.0053257961529341
                   228   0.027060721042034
                 64.71    0.10165684614077
                 21.06     0.2745748236174
                 7.495    0.44829431892377
                 2.797    0.28490261071525
                0.5215   0.015194859206082
 s    8 1.00
                  6665  -0.00029326965268655
                  1000  -0.0023180354739745
                   228  -0.011499786038565
                 64.71  -0.046826727009787
                 21.06   -0.12846616875047
                 7.495   -0.30126627246289
                 2.797   -0.25563070233011
                0.5215      1.093793361012
 s    1 1.00
                0.1596                   1
 p    3 1.00
                 9.439   0.056979251590039
                 2.002    0.31320721150073
                0.5456    0.76037674173753
 p    1 1.00
                0.1517                   1
 d    1 1.00
                  0.55                   1

4 0
 s    8 1.00
                  6665  0.00069158396281299
                  1000  0.0053257961529341
                   228   0.027060721042034
                 64.71    0.10165684614077
                 21.06     0.2745748236174
                 7.495    0.44829431892377
                 2.797    0.28490261071525
                0.5215   0.015194859206082
 s    8 1.00
                  6665  -0.00029326965268655
                  1000  -0.0023180354739745
                   228  -0.011499786038565
                 64.71  -0.046826727009787
                 21.06   -0.12846616875047
                 7.495   -0.30126627246289
                 2.797   -0.25563070233011
                0.5215      1.093793361012
 s    1 1.00
                0.1596                   1
 p    3 1.00
                 9.439   0.056979251590039
                 2.002    0.31320721150073
                0.5456    0.76037674173753
 p    1 1.00
                0.1517                   1
 d    1 1.00
                  0.55                   1

5 0
 s    8 1.00
                  6665  0.00069158396281299
                  1000  0.0053257961529341
                   228   0.027060721042034
                 64.71    0.10165684614077
                 21.06     0.2745748236174
                 7.495    0.44829431892377
                 2.797    0.28490261071525
                0.5215   0.015194859206082
 s    8 1.00
                  6665  -0.00029326965268655
                  1000  -0.0023180354739745
                   228  -0.011499786038565
                 64.71  -0.046826727009787
                 21.06   -0.12846616875047
                 7.495   -0.30126627246289
                 2.797   -0.25563070233011
                0.5215      1.093793361012
 s    1 1.00
                0.1596                   1
 p    3 1.00
                 9.439   0.056979251590039
                 2.002    0.31320721150073
                0.5456    0.76037674173753
 p    1 1.00
                0.1517                   1
 d    1 1.00
                  0.55                   1

6 0
 s    8 1.00
                 11720  0.00070964594651845
                  1759  0.0054672722921914
                 400.8   0.027823118610189
                 113.7    0.10474773971146
                 37.03    0.28292084635691
                 13.27    0.44849523869833
                 5.025    0.27081688521277
                 1.013    0.01545029160744
 s    8 1.00
                 11720  -0.00031444341168873
                  1759  -0.0024821376810179
                 400.8  -0.012316355381583
                 113.7  -0.050538917343672
                 37.03   -0.13938490331632
                 13.27   -0.32507749481778
                 5.025   -0.22984830758785
                 1.013     1.0953793467883
 s    1 1.00
                0.3023                   1
 p    3 1.00
                  17.7   0.062679166281506
                 3.854    0.33353656587936
                 1.046    0.74123964163973
 p    1 1.00
                0.2753                   1
 d    1 1.00
                 1.185                   1

7 0
 s    8 1.00
                 11720  0.00070964594651845
                  1759  0.0054672722921914
                 400.8   0.027823118610189
                 113.7    0.10474773971146
                 37.03    0.28292084635691
                 13.27    0.44849523869833
                 5.025    0.27081688521277
                 1.013    0.01545029160744
 s    8 1.00
                 11720  -0.00031444341168873
                  1759  -0.0024821376810179
                 400.8  -0.012316355381583
                 113.7  -0.050538917343672
                 37.03   -0.13938490331632
                 13.27   -0.32507749481778
                 5.025   -0.22984830758785
                 1.013     1.0953793467883
 s    1 1.00
                0.3023                   1
 p    3 1.00
                  17.7   0.062679166281506
                 3.854    0.33353656587936
                 1.046    0.74123964163973
 p    1 1.00
                0.2753                   1
 d    1 1.00
                 1.185                   1

8 0
 s    8 1.00
                 11720  0.00070964594651845
                  1759  0.0054672722921914
                 400.8   0.027823118610189
                 113.7    0.10474773971146
                 37.03    0.28292084635691
                 13.27    0.44849523869833
                 5.025    0.27081688521277
                 1.013    0.01545029160744
 s    8 1.00
                 11720  -0.00031444341168873
                  1759  -0.0024821376810179
                 400.8  -0.012316355381583
                 113.7  -0.050538917343672
                 37.03   -0.13938490331632
                 13.27   -0.32507749481778
                 5.025   -0.22984830758785
                 1.013     1.0953793467883
 s    1 1.00
                0.3023                   1
 p    3 1.00
                  17.7   0.062679166281506
                 3.854    0.33353656587936
                 1.046    0.74123964163973
 p    1 1.00
                0.2753                   1
 d    1 1.00
                 1.185                   1

9 0
 s    8 1.00
                 11720  0.00070964594651845
                  1759  0.0054672722921914
                 400.8   0.027823118610189
                 113.7    0.10474773971146
                 37.03    0.28292084635691
                 13.27    0.44849523869833
                 5.025    0.27081688521277
                 1.013    0.01545029160744
 s    8 1.00
                 11720  -0.00031444341168873
                  1759  -0.0024821376810179
                 400.8  -0.012316355381583
                 113.7  -0.050538917343672
                 37.03   -0.13938490331632
                 13.27   -0.32507749481778
                 5.025   -0.22984830758785
                 1.013     1.0953793467883
 s    1 1.00
                0.3023                   1
 p    3 1.00
                  17.7   0.062679166281506
                 3.854    0.33353656587936
                 1.046    0.74123964163973
 p    1 1.00
                0.2753                   1
 d    1 1.00
                 1.185                   1

10 0
 s    8 1.00
                  6665  0.00069158396281299
                  1000  0.0053257961529341
                   228   0.027060721042034
                 64.71    0.10165684614077
                 21.06     0.2745748236174
                 7.495    0.44829431892377
                 2.797    0.28490261071525
                0.5215   0.015194859206082
 s    8 1.00
                  6665  -0.00029326965268655
                  1000  -0.0023180354739745
                   228  -0.011499786038565
                 64.71  -0.046826727009787
                 21.06   -0.12846616875047
                 7.495   -0.30126627246289
                 2.797   -0.25563070233011
                0.5215      1.093793361012
 s    1 1.00
                0.1596                   1
 p    3 1.00
                 9.439   0.056979251590039
                 2.002    0.31320721150073
                0.5456    0.76037674173753
 p    1 1.00
                0.1517                   1
 d    1 1.00
                  0.55                   1

11 0
 s    8 1.00
                 11720  0.00070964594651845
                  1759  0.0054672722921914
                 400.8   0.027823118610189
                 113.7    0.10474773971146
                 37.03    0.28292084635691
                 13.27    0.44849523869833
                 5.025    0.27081688521277
                 1.013    0.01545029160744
 s    8 1.00
                 11720  -0.00031444341168873
                  1759  -0.0024821376810179
                 400.8  -0.012316355381583
                 113.7  -0.050538917343672
                 37.03   -0.13938490331632
                 13.27   -0.32507749481778
                 5.025   -0.22984830758785
                 1.013     1.0953793467883
 s    1 1.00
                0.3023                   1
 p    3 1.00
                  17.7   0.062679166281506
                 3.854    0.33353656587936
                 1.046    0.74123964163973
 p    1 1.00
                0.2753                   1
 d    1 1.00
                 1.185                   1

12 0
 s    3 1.00
                 13.01   0.033498726389998
                 1.962    0.23480080117413
                0.4446     0.8136829578829
 s    1 1.00
                 0.122                   1
 p    1 1.00
                 0.727                   1

13 0
 s    3 1.00
                 13.01   0.033498726389998
                 1.962    0.23480080117413
                0.4446     0.8136829578829
 s    1 1.00
                 0.122                   1
 p    1 1.00
                 0.727                   1

14 0
 s    3 1.00
                 13.01   0.033498726389998
                 1.962    0.23480080117413
                0.4446     0.8136829578829
 s    1 1.00
                 0.122                   1
 p    1 1.00
                 0.727                   1

15 0
 s    3 1.00
                 13.01   0.033498726389998
                 1.962    0.23480080117413
                0.4446     0.8136829578829
 s    1 1.00
                 0.122                   1
 p    1 1.00
                 0.727                   1

16 0
 s    8 1.00
                 11720  0.00070964594651845
                  1759  0.0054672722921914
                 400.8   0.027823118610189
                 113.7    0.10474773971146
                 37.03    0.28292084635691
                 13.27    0.44849523869833
                 5.025    0.27081688521277
                 1.013    0.01545029160744
 s    8 1.00
                 11720  -0.00031444341168873
                  1759  -0.0024821376810179
                 400.8  -0.012316355381583
                 113.7  -0.050538917343672
                 37.03   -0.13938490331632
                 13.27   -0.32507749481778
                 5.025   -0.22984830758785
                 1.013     1.0953793467883
 s    1 1.00
                0.3023                   1
 p    3 1.00
                  17.7   0.062679166281506
                 3.854    0.33353656587936
                 1.046    0.74123964163973
 p    1 1.00
                0.2753                   1
 d    1 1.00
                 1.185                   1

17 0
 s    3 1.00
                 13.01   0.033498726389998
                 1.962    0.23480080117413
                0.4446     0.8136829578829
 s    1 1.00
                 0.122                   1
 p    1 1.00
                 0.727                   1

18 0
 s    3 1.00
                 13.01   0.033498726389998
                 1.962    0.23480080117413
                0.4446     0.8136829578829
 s    1 1.00
                 0.122                   1
 p    1 1.00
                 0.727                   1

19 0
 s    3 1.00
                 13.01   0.033498726389998
                 1.962    0.23480080117413
                0.4446     0.8136829578829
 s    1 1.00
                 0.122                   1
 p    1 1.00
                 0.727                   1

20 0
 s    3 1.00
                 13.01   0.033498726389998
                 1.962    0.23480080117413
                0.4446     0.8136829578829
 s    1 1.00
                 0.122                   1
 p    1 1.00
                 0.727                   1

21 0
 s    3 1.00
                 13.01   0.033498726389998
                 1.962    0.23480080117413
                0.4446     0.8136829578829
 s    1 1.00
                 0.122                   1
 p    1 1.00
                 0.727                   1

22 0
 s    3 1.00
                 13.01   0.033498726389998
                 1.962    0.23480080117413
                0.4446     0.8136829578829
 s    1 1.00
                 0.122                   1
 p    1 1.00
                 0.727                   1

23 0
 s    3 1.00
                 13.01   0.033498726389998
                 1.962    0.23480080117413
                0.4446     0.8136829578829
 s    1 1.00
                 0.122                   1
 p    1 1.00
                 0.727                   1

24 0
 s    3 1.00
                 13.01   0.033498726389998
                 1.962    0.23480080117413
                0.4446     0.8136829578829
 s    1 1.00
                 0.122                   1
 p    1 1.00
                 0.727                   1

[5d]
[7f]
[9g]

[MO]
 Sym= A
 Ene=     -20.5892274
 Spin= Alpha
 Occup=    2.00000
   1    -0.00051709087272471
   2    0.0019200881511091
   3     0.016949791223603
   4    0.0014954011105841
   5    0.0023908867202246
   6    -0.0044845863129819
   7    -0.0045448588541606
   8    -0.0020778416276566
   9    -0.001757061078514
  10    -0.00035280206334876
  11    -0.00060672914348293
  12    -0.00024333159687992
  13    -0.00025471645129863
  14    7.9110929451473e-05
  15    0.0011024011781836
  16    0.0020479515088461
  17    -0.012473280841103
  18    0.00023084949948962
  19    -0.00013286287469158
  20    -0.0006190067255195
  21    -0.0025708002267311
  22    0.0084715259638338
  23    0.0057260054086901
  24    1.6136034098342e-05
  25    -0.00014835847407534
  26    -0.00030220377755887
  27    7.6257173987061e-05
  28    1.8182883893589e-06
  29    0.00030550350907959
  30    0.0014731338089802
  31    0.00071094833649954
  32    -7.0990110075733e-05
  33    0.00065868160730123
  34    -0.0010127780310749
  35    0.0092363771100427
  36    -0.0097445954195103
  37     0.005247290106948
  38    -0.00021031339514095
  39    0.0006634104324441
  40    0.00040167644331289
  41    -0.00034272317558551
  42    0.00010513304608155
  43    0.0020057547998346
  44    0.0043816869528669
  45    -0.022419375959396
  46    0.00089949995812043
  47    -0.0016303479169743
  48    -0.0040155156432365
  49    -0.014891405594792
  50    0.0004639631775335
  51      0.01888798636491
  52      0.00092710632448
  53    -0.00049161923077566
  54    -0.00064863257646579
  55    -0.0015329884576015
  56    -0.00014853107107144
  57    -0.0017261090763184
  58    0.0087412725786609
  59     0.062205576873207
  60    0.0072637618510286
  61     0.013377529336953
  62    -0.013296854437728
  63    0.0022095473104372
  64     0.050432017316114
  65    -0.033808369712108
  66    -0.0025480671764731
  67    -0.0014709781705664
  68    -0.002413333454388
  69    -0.00058664771789769
  70    5.5940131320937e-06
  71    0.00048440340652088
  72    -0.0028988349099524
  73    -0.015820834383561
  74    0.0045975497695267
  75    -0.00021575004360067
  76    0.0051982906371555
  77    0.0071195186775377
  78    -0.0035590644678433
  79    0.0075102078456758
  80    0.00090394235490629
  81    0.00021478155633102
  82    -0.00029409840710553
  83    -0.00029048271557353
  84    -0.00013975747234437
  85    2.7197995991207e-05
  86    0.00018025781557203
  87    0.00083998953286749
  88    5.5046172074462e-05
  89    8.7971368641374e-05
  90    -0.00022655011212815
  91    0.00088961443653213
  92    -0.00097323911695728
  93    -0.00057333543377269
  94    1.9774071340465e-05
  95    -1.935928615696e-05
  96    3.8429756873072e-05
  97    4.161414635707e-05
  98    -5.0507751992595e-06
  99    -0.00042720965845155
 100    -0.00058703433051278
 101    0.0053458361957852
 102    -0.00033984241192492
 103    0.00014188406093704
 104    -0.0003542985034642
 105    0.00083487837611013
 106    -0.00041186575426647
 107    -0.0005204421032556
 108    -1.6545402716484e-05
 109    -9.158320282456e-05
 110    1.1029076876352e-05
 111    5.6220199109438e-05
 112    -2.1409044958197e-05
 113    0.0004563032798223
 114    0.0057854487191396
 115     0.015788281144274
 116     0.005162874426699
 117     0.002476819565166
 118    -0.0061705407930067
 119    -0.0023364630681897
 120    0.0036667181564759
 121    0.0027795088609003
 122    -0.00055514317953532
 123    0.0014059949799087
 124    0.00021148899445118
 125    -0.00035704985585395
 126    3.1322615751998e-05
 127    -0.00077290164368918
 128    -0.045586539154343
 129    -0.069846231361077
 130     0.029805296113627
 131     0.031723726095626
 132     0.052628836193233
 133     0.031248327449525
 134    -0.002039542652955
 135    -0.016588790710181
 136     0.011162264645785
 137    -0.0097370823404852
 138     0.007378689090445
 139     -0.01657698352082
 140    -0.0042883096177354
 141    -0.0030687357424542
 142      0.35091605750352
 143      0.45672428679018
 144      0.22461100360585
 145     -0.22084811582615
 146     -0.30715368754684
 147      0.15790324819163
 148     -0.17036582548282
 149     -0.23503136365853
 150    -0.0047716858170822
 151    0.0081149312782346
 152    -0.010429360314882
 153    -0.0020393450986462
 154    0.0051118367987918
 155    -0.00014340453428219
 156    -0.00034272953951074
 157    2.8243124686255e-05
 158    6.7621927587252e-05
 159    5.9663760666739e-05
 160    -0.00060796677900265
 161    0.00090836668408672
 162    -0.00024848409518265
 163    -9.7553101439966e-06
 164    0.00018450747109814
 165     -0.09488733392845
 166    -0.0048712888740676
 167    -0.0014388557618894
 168    -0.0097863378600984
 169    -0.012551827242204
 170    -0.0089822300282671
 171    -0.0076156998588812
 172    -0.0015060616021522
 173    0.00084520319512692
 174    -0.0011897945614688
 175    6.8585581720692e-06
 176    -0.00057756699666404
 177    -0.0011479934585364
 178    0.00066604793690792
 179    0.00012067813503676
 180    0.0018670175099913
 181    0.0011352652982645
 182    0.00032726644598166
 183     0.002020788843206
 184    0.00012667718533468
 185    7.6346675891678e-06
 186    3.7042958364198e-05
 187    -7.5648886070975e-06
 188    -3.7427450463819e-05
 189    -0.00039270198072378
 190    0.00064757804574546
 191    -0.0001014343679562
 192    1.5252277427753e-05
 193    -2.216382680699e-06
 194    -0.0010273538590434
 195    -0.0048264625249821
 196    0.00020583996840118
 197    -0.00028824689708203
 198    -0.00024334960512609
 199    -0.00014314817899085
 200    -0.0043510959488373
 201    0.00010567452359489
 202    -9.4163165092049e-06
 203    -0.00027636852912525
 204    -0.00086073551747144
 205    -0.0057172319759361
 206    -0.00040526194278855
 207    -0.00014726352425939
 208    -0.00023573649062554
 209    -0.0019404245061372
 210    -0.00099923809453977
 211    0.00018367272936156
 212    0.00032476001427073
 213    -0.0011633354937047
 214    0.0023225005948362
 215     0.031761087517947
 216    0.00037195532623956
 217    0.0012345129476514
 218    5.3318534167608e-05
 219     0.019738363233492
 220     0.039469995393531
 221    -0.00043362257615647
 222    0.00096834170286442
 223    0.0026383091875534
 224    -0.040074310594257
 225    -0.032250620233839
 226    0.0010873346498834
 227    0.0022065850088529
 228    0.0034859561213017
