[Molden Format]
made by pyscf v[2.1.0]
[Atoms] (AU)
C   1   6     2.32946917320360    -0.63344186613258     2.37168943427863
C   2   6    -0.29669267073509     0.30039086476086     3.22269546913239
C   3   6    -2.28836574026819    -0.45088865332122     1.27613394164491
C   4   6    -1.50258360260379     0.48150977544368    -1.34195877174189
C   5   6     1.17077037184366    -0.47613539434541    -1.98531603085006
O   6   8     2.90615122545875     0.36947547242271    -0.06380660259594
O   7   8    -1.02480036707776    -0.78170410868758     5.58840958940515
O   8   8    -4.71990091118567     0.61286652808832     1.81907682367207
O   9   8    -3.21856263809797    -0.39246777018029    -3.24986406162526
C   10   6     2.14873576665020     0.54311106765225    -4.52137384344336
O   11   8     0.97527064535291    -0.64120108160005    -6.63217335814292
H   12   1     0.34900595904142    -0.48214283369541     6.76077111064570
H   13   1    -5.19719092819319     0.02690592056156     3.48444332437202
H   14   1    -0.83535721281623    -0.49952075513691    -6.37469817367093
H   15   1    -4.90002393620084     0.08874342853570    -2.71063260170675
O   16   8     4.22615893853768     0.10859122202201     4.07505454789134
H   17   1     4.38166639105427     1.93178575891951     3.94362220620171
H   18   1     2.36505838530753    -2.71537014510103     2.34202262384909
H   19   1    -0.22188597236806     2.38358526023277     3.34538215831753
H   20   1    -2.40897751016855    -2.53158672058258     1.22868291865708
H   21   1    -1.45404220764209     2.56502731408288    -1.31752650267738
H   22   1     1.14953551938192    -2.55944317338479    -2.06041941621865
H   23   1     1.89192576577406     2.61534694132780    -4.54974430175146
H   24   1     4.17463555575142     0.13656105839169    -4.65046670419078
[GTO]
1 0
 s    8 1.00
                  6665  0.00069158396281299
                  1000  0.0053257961529341
                   228   0.027060721042034
                 64.71    0.10165684614077
                 21.06     0.2745748236174
                 7.495    0.44829431892377
                 2.797    0.28490261071525
                0.5215   0.015194859206082
 s    8 1.00
                  6665  -0.00029326965268655
                  1000  -0.0023180354739745
                   228  -0.011499786038565
                 64.71  -0.046826727009787
                 21.06   -0.12846616875047
                 7.495   -0.30126627246289
                 2.797   -0.25563070233011
                0.5215      1.093793361012
 s    1 1.00
                0.1596                   1
 p    3 1.00
                 9.439   0.056979251590039
                 2.002    0.31320721150073
                0.5456    0.76037674173753
 p    1 1.00
                0.1517                   1
 d    1 1.00
                  0.55                   1

2 0
 s    8 1.00
                  6665  0.00069158396281299
                  1000  0.0053257961529341
                   228   0.027060721042034
                 64.71    0.10165684614077
                 21.06     0.2745748236174
                 7.495    0.44829431892377
                 2.797    0.28490261071525
                0.5215   0.015194859206082
 s    8 1.00
                  6665  -0.00029326965268655
                  1000  -0.0023180354739745
                   228  -0.011499786038565
                 64.71  -0.046826727009787
                 21.06   -0.12846616875047
                 7.495   -0.30126627246289
                 2.797   -0.25563070233011
                0.5215      1.093793361012
 s    1 1.00
                0.1596                   1
 p    3 1.00
                 9.439   0.056979251590039
                 2.002    0.31320721150073
                0.5456    0.76037674173753
 p    1 1.00
                0.1517                   1
 d    1 1.00
                  0.55                   1

3 0
 s    8 1.00
                  6665  0.00069158396281299
                  1000  0.0053257961529341
                   228   0.027060721042034
                 64.71    0.10165684614077
                 21.06     0.2745748236174
                 7.495    0.44829431892377
                 2.797    0.28490261071525
                0.5215   0.015194859206082
 s    8 1.00
                  6665  -0.00029326965268655
                  1000  -0.0023180354739745
                   228  -0.011499786038565
                 64.71  -0.046826727009787
                 21.06   -0.12846616875047
                 7.495   -0.30126627246289
                 2.797   -0.25563070233011
                0.5215      1.093793361012
 s    1 1.00
                0.1596                   1
 p    3 1.00
                 9.439   0.056979251590039
                 2.002    0.31320721150073
                0.5456    0.76037674173753
 p    1 1.00
                0.1517                   1
 d    1 1.00
                  0.55                   1

4 0
 s    8 1.00
                  6665  0.00069158396281299
                  1000  0.0053257961529341
                   228   0.027060721042034
                 64.71    0.10165684614077
                 21.06     0.2745748236174
                 7.495    0.44829431892377
                 2.797    0.28490261071525
                0.5215   0.015194859206082
 s    8 1.00
                  6665  -0.00029326965268655
                  1000  -0.0023180354739745
                   228  -0.011499786038565
                 64.71  -0.046826727009787
                 21.06   -0.12846616875047
                 7.495   -0.30126627246289
                 2.797   -0.25563070233011
                0.5215      1.093793361012
 s    1 1.00
                0.1596                   1
 p    3 1.00
                 9.439   0.056979251590039
                 2.002    0.31320721150073
                0.5456    0.76037674173753
 p    1 1.00
                0.1517                   1
 d    1 1.00
                  0.55                   1

5 0
 s    8 1.00
                  6665  0.00069158396281299
                  1000  0.0053257961529341
                   228   0.027060721042034
                 64.71    0.10165684614077
                 21.06     0.2745748236174
                 7.495    0.44829431892377
                 2.797    0.28490261071525
                0.5215   0.015194859206082
 s    8 1.00
                  6665  -0.00029326965268655
                  1000  -0.0023180354739745
                   228  -0.011499786038565
                 64.71  -0.046826727009787
                 21.06   -0.12846616875047
                 7.495   -0.30126627246289
                 2.797   -0.25563070233011
                0.5215      1.093793361012
 s    1 1.00
                0.1596                   1
 p    3 1.00
                 9.439   0.056979251590039
                 2.002    0.31320721150073
                0.5456    0.76037674173753
 p    1 1.00
                0.1517                   1
 d    1 1.00
                  0.55                   1

6 0
 s    8 1.00
                 11720  0.00070964594651845
                  1759  0.0054672722921914
                 400.8   0.027823118610189
                 113.7    0.10474773971146
                 37.03    0.28292084635691
                 13.27    0.44849523869833
                 5.025    0.27081688521277
                 1.013    0.01545029160744
 s    8 1.00
                 11720  -0.00031444341168873
                  1759  -0.0024821376810179
                 400.8  -0.012316355381583
                 113.7  -0.050538917343672
                 37.03   -0.13938490331632
                 13.27   -0.32507749481778
                 5.025   -0.22984830758785
                 1.013     1.0953793467883
 s    1 1.00
                0.3023                   1
 p    3 1.00
                  17.7   0.062679166281506
                 3.854    0.33353656587936
                 1.046    0.74123964163973
 p    1 1.00
                0.2753                   1
 d    1 1.00
                 1.185                   1

7 0
 s    8 1.00
                 11720  0.00070964594651845
                  1759  0.0054672722921914
                 400.8   0.027823118610189
                 113.7    0.10474773971146
                 37.03    0.28292084635691
                 13.27    0.44849523869833
                 5.025    0.27081688521277
                 1.013    0.01545029160744
 s    8 1.00
                 11720  -0.00031444341168873
                  1759  -0.0024821376810179
                 400.8  -0.012316355381583
                 113.7  -0.050538917343672
                 37.03   -0.13938490331632
                 13.27   -0.32507749481778
                 5.025   -0.22984830758785
                 1.013     1.0953793467883
 s    1 1.00
                0.3023                   1
 p    3 1.00
                  17.7   0.062679166281506
                 3.854    0.33353656587936
                 1.046    0.74123964163973
 p    1 1.00
                0.2753                   1
 d    1 1.00
                 1.185                   1

8 0
 s    8 1.00
                 11720  0.00070964594651845
                  1759  0.0054672722921914
                 400.8   0.027823118610189
                 113.7    0.10474773971146
                 37.03    0.28292084635691
                 13.27    0.44849523869833
                 5.025    0.27081688521277
                 1.013    0.01545029160744
 s    8 1.00
                 11720  -0.00031444341168873
                  1759  -0.0024821376810179
                 400.8  -0.012316355381583
                 113.7  -0.050538917343672
                 37.03   -0.13938490331632
                 13.27   -0.32507749481778
                 5.025   -0.22984830758785
                 1.013     1.0953793467883
 s    1 1.00
                0.3023                   1
 p    3 1.00
                  17.7   0.062679166281506
                 3.854    0.33353656587936
                 1.046    0.74123964163973
 p    1 1.00
                0.2753                   1
 d    1 1.00
                 1.185                   1

9 0
 s    8 1.00
                 11720  0.00070964594651845
                  1759  0.0054672722921914
                 400.8   0.027823118610189
                 113.7    0.10474773971146
                 37.03    0.28292084635691
                 13.27    0.44849523869833
                 5.025    0.27081688521277
                 1.013    0.01545029160744
 s    8 1.00
                 11720  -0.00031444341168873
                  1759  -0.0024821376810179
                 400.8  -0.012316355381583
                 113.7  -0.050538917343672
                 37.03   -0.13938490331632
                 13.27   -0.32507749481778
                 5.025   -0.22984830758785
                 1.013     1.0953793467883
 s    1 1.00
                0.3023                   1
 p    3 1.00
                  17.7   0.062679166281506
                 3.854    0.33353656587936
                 1.046    0.74123964163973
 p    1 1.00
                0.2753                   1
 d    1 1.00
                 1.185                   1

10 0
 s    8 1.00
                  6665  0.00069158396281299
                  1000  0.0053257961529341
                   228   0.027060721042034
                 64.71    0.10165684614077
                 21.06     0.2745748236174
                 7.495    0.44829431892377
                 2.797    0.28490261071525
                0.5215   0.015194859206082
 s    8 1.00
                  6665  -0.00029326965268655
                  1000  -0.0023180354739745
                   228  -0.011499786038565
                 64.71  -0.046826727009787
                 21.06   -0.12846616875047
                 7.495   -0.30126627246289
                 2.797   -0.25563070233011
                0.5215      1.093793361012
 s    1 1.00
                0.1596                   1
 p    3 1.00
                 9.439   0.056979251590039
                 2.002    0.31320721150073
                0.5456    0.76037674173753
 p    1 1.00
                0.1517                   1
 d    1 1.00
                  0.55                   1

11 0
 s    8 1.00
                 11720  0.00070964594651845
                  1759  0.0054672722921914
                 400.8   0.027823118610189
                 113.7    0.10474773971146
                 37.03    0.28292084635691
                 13.27    0.44849523869833
                 5.025    0.27081688521277
                 1.013    0.01545029160744
 s    8 1.00
                 11720  -0.00031444341168873
                  1759  -0.0024821376810179
                 400.8  -0.012316355381583
                 113.7  -0.050538917343672
                 37.03   -0.13938490331632
                 13.27   -0.32507749481778
                 5.025   -0.22984830758785
                 1.013     1.0953793467883
 s    1 1.00
                0.3023                   1
 p    3 1.00
                  17.7   0.062679166281506
                 3.854    0.33353656587936
                 1.046    0.74123964163973
 p    1 1.00
                0.2753                   1
 d    1 1.00
                 1.185                   1

12 0
 s    3 1.00
                 13.01   0.033498726389998
                 1.962    0.23480080117413
                0.4446     0.8136829578829
 s    1 1.00
                 0.122                   1
 p    1 1.00
                 0.727                   1

13 0
 s    3 1.00
                 13.01   0.033498726389998
                 1.962    0.23480080117413
                0.4446     0.8136829578829
 s    1 1.00
                 0.122                   1
 p    1 1.00
                 0.727                   1

14 0
 s    3 1.00
                 13.01   0.033498726389998
                 1.962    0.23480080117413
                0.4446     0.8136829578829
 s    1 1.00
                 0.122                   1
 p    1 1.00
                 0.727                   1

15 0
 s    3 1.00
                 13.01   0.033498726389998
                 1.962    0.23480080117413
                0.4446     0.8136829578829
 s    1 1.00
                 0.122                   1
 p    1 1.00
                 0.727                   1

16 0
 s    8 1.00
                 11720  0.00070964594651845
                  1759  0.0054672722921914
                 400.8   0.027823118610189
                 113.7    0.10474773971146
                 37.03    0.28292084635691
                 13.27    0.44849523869833
                 5.025    0.27081688521277
                 1.013    0.01545029160744
 s    8 1.00
                 11720  -0.00031444341168873
                  1759  -0.0024821376810179
                 400.8  -0.012316355381583
                 113.7  -0.050538917343672
                 37.03   -0.13938490331632
                 13.27   -0.32507749481778
                 5.025   -0.22984830758785
                 1.013     1.0953793467883
 s    1 1.00
                0.3023                   1
 p    3 1.00
                  17.7   0.062679166281506
                 3.854    0.33353656587936
                 1.046    0.74123964163973
 p    1 1.00
                0.2753                   1
 d    1 1.00
                 1.185                   1

17 0
 s    3 1.00
                 13.01   0.033498726389998
                 1.962    0.23480080117413
                0.4446     0.8136829578829
 s    1 1.00
                 0.122                   1
 p    1 1.00
                 0.727                   1

18 0
 s    3 1.00
                 13.01   0.033498726389998
                 1.962    0.23480080117413
                0.4446     0.8136829578829
 s    1 1.00
                 0.122                   1
 p    1 1.00
                 0.727                   1

19 0
 s    3 1.00
                 13.01   0.033498726389998
                 1.962    0.23480080117413
                0.4446     0.8136829578829
 s    1 1.00
                 0.122                   1
 p    1 1.00
                 0.727                   1

20 0
 s    3 1.00
                 13.01   0.033498726389998
                 1.962    0.23480080117413
                0.4446     0.8136829578829
 s    1 1.00
                 0.122                   1
 p    1 1.00
                 0.727                   1

21 0
 s    3 1.00
                 13.01   0.033498726389998
                 1.962    0.23480080117413
                0.4446     0.8136829578829
 s    1 1.00
                 0.122                   1
 p    1 1.00
                 0.727                   1

22 0
 s    3 1.00
                 13.01   0.033498726389998
                 1.962    0.23480080117413
                0.4446     0.8136829578829
 s    1 1.00
                 0.122                   1
 p    1 1.00
                 0.727                   1

23 0
 s    3 1.00
                 13.01   0.033498726389998
                 1.962    0.23480080117413
                0.4446     0.8136829578829
 s    1 1.00
                 0.122                   1
 p    1 1.00
                 0.727                   1

24 0
 s    3 1.00
                 13.01   0.033498726389998
                 1.962    0.23480080117413
                0.4446     0.8136829578829
 s    1 1.00
                 0.122                   1
 p    1 1.00
                 0.727                   1

[5d]
[7f]
[9g]

[MO]
 Sym= A
 Ene=     -20.5892274
 Spin= Alpha
 Occup=    2.00000
   1    0.0020693378847273
   2    0.0071844411499955
   3    -0.0052415418792967
   4    0.0019744652549155
   5    0.0034618832091885
   6    -0.0061150669386693
   7    -0.0014523260523925
   8    0.0018693745307424
   9    0.0071564368683496
  10    -0.00069545691327597
  11    -0.0013368730265799
  12    -0.00096415497436999
  13    -0.00026491510722574
  14    -0.00012756538246837
  15    0.00066544666682245
  16    0.00095165725747687
  17    -0.0091737009032742
  18    -0.00042833827523661
  19    -0.00032991370780773
  20    -0.00065312595826334
  21    -0.00030150744283389
  22    0.0052702501568483
  23    -0.0019646302053306
  24    -0.00020341937001672
  25    -0.00034984555969129
  26    9.7296357631618e-05
  27    -0.00022751049796476
  28    0.00033221469122591
  29    0.00041010011250657
  30    0.0018942173429726
  31    -0.0017131250284828
  32    -0.00037246571893408
  33    0.0004906091261622
  34    -0.00087824550619607
  35     0.005961316300922
  36    0.0062548929378193
  37    0.0026181231086608
  38    -0.00014934791959494
  39    0.00069300084162437
  40    -0.00039521626556062
  41    -0.00049383893884825
  42    0.00054138311386287
  43    -0.0014428049714926
  44    -0.0015566884991745
  45     0.035112287841468
  46    -0.00087535480698573
  47    0.0021823694557931
  48    -0.0025636550894649
  49    0.0053988763911207
  50    -0.016142482384895
  51    -0.014615201382084
  52    0.00069351691404284
  53    -0.0030468144231271
  54    0.0014179682307152
  55    -0.00024307000279163
  56    -4.2542924903759e-05
  57    0.0017579875033362
  58     0.033585283878188
  59     0.074868715923609
  60     0.016558132809847
  61    0.0047944942371744
  62    -0.039622378801187
  63     0.066247905962538
  64    -0.0019860259858003
  65    -0.0053605223039431
  66    -0.0008057744156436
  67    -0.00055520553738271
  68    2.5721435125191e-05
  69    -0.00091894854996864
  70    -0.00068314910626699
  71    0.0018606861618463
  72    -0.0028003412240385
  73    -0.034285856246915
  74    0.0051768767670979
  75    0.0060258466879914
  76    0.0097983287471583
  77    0.0091692000151351
  78     0.010815848243012
  79     0.018796337741198
  80    0.0016941074485158
  81    -0.00026444106628606
  82    -0.0001734848974343
  83    -0.00031886734836789
  84    -0.00060690269788437
  85    -0.00020391608848013
  86    -0.00021753095381487
  87    0.0032827374366318
  88    0.00028371144734061
  89    0.00028750903578081
  90    -0.00032229994269427
  91    0.00063154093527171
  92    0.00070745447452347
  93    -0.0013106767435975
  94    1.7664584896398e-05
  95     1.38245142989e-05
  96    -3.2045374808621e-06
  97    1.2623983342473e-05
  98    2.2218838829171e-05
  99    -0.00033595369389735
 100    -0.0010207244923153
 101    0.0014623716008989
 102    -0.0012533650192452
 103    0.00055573995675928
 104    0.00031125171494151
 105    -4.35520389898e-05
 106    -8.312939733017e-05
 107    -0.0018922782675959
 108    -2.6937673689359e-05
 109    -0.00016124182808878
 110    4.3687365512175e-05
 111    5.2011287631505e-05
 112    -5.843510981854e-05
 113    0.0011763007453791
 114    0.0043530881085166
 115    -0.0039093289300924
 116    0.0025072912694563
 117    -0.0041090676377561
 118    -0.0032202143294672
 119    -0.0068686279124234
 120    0.0004891076174833
 121    -0.00043512000076047
 122    -3.1017616760059e-05
 123    0.00059154097272395
 124    -0.00016924775196531
 125    -0.00022919187854444
 126    0.00038613878412658
 127    0.00090384771051346
 128    -0.0027383875237097
 129    -0.00073907240798429
 130    0.0051064121159066
 131    0.0083016734301511
 132    -0.00035978158644174
 133    -0.018551918006873
 134     0.013307449555237
 135    -0.034139968058679
 136     0.026294928954043
 137    0.0047969961008275
 138    -0.016322261344715
 139     0.014996435312028
 140    -0.012509910670985
 141    0.0021926712357773
 142     0.023600055879995
 143    0.0038624891537119
 144     0.016895425376549
 145      0.53657047552626
 146     -0.33412274515067
 147      0.01159091461479
 148      0.41147500856465
 149     -0.26197684286624
 150    -0.012605743650116
 151    0.0040352439146706
 152    0.0077871996537617
 153    -0.006973292357951
 154    -0.005672452484326
 155    0.00016085100356017
 156    -0.00019007665959344
 157    4.8294810750391e-05
 158    2.7340168223459e-05
 159    0.00014893972491665
 160    0.00081381610626184
 161    0.0013562012512917
 162    -0.00016225285629909
 163    0.00015856180817868
 164    -7.3885564024766e-05
 165    -0.0065787077477132
 166     0.010665257119533
 167    0.00086557066483472
 168     0.024943569149104
 169    -0.015454847131617
 170    -0.0066173814484849
 171    -0.0056380449224065
 172    -0.0010484218056558
 173    -0.00036178016123352
 174    -7.2127007697253e-05
 175    -3.9962025801799e-05
 176    -0.0010662532609039
 177    -0.0015865454414144
 178     0.001147163339463
 179    -5.2754844348801e-05
 180    0.0028220984654147
 181    0.0016358393612163
 182    0.00086841263353623
 183    0.0017677171369253
 184    0.00015099293616818
 185    0.00014194803145004
 186    4.0254105184352e-05
 187    -5.3775764497323e-05
 188    2.3469641909293e-06
 189    -0.00063996662278502
 190    -0.00056631280716047
 191    -3.4439448900043e-05
 192    0.00031214492195845
 193    -3.2994560486095e-06
 194      0.00138875414497
 195    0.0065386042702513
 196    7.667592315675e-05
 197    0.0004148624063543
 198    -0.00077276495663425
 199    -0.0011700336825532
 200    -0.001709165150782
 201    9.2008255164454e-05
 202    0.00012844980980631
 203    -1.2649248386095e-05
 204    0.0004404472543497
 205     0.010741620348725
 206    -7.9547784648347e-05
 207    0.00051393757042856
 208    -0.00011495603190804
 209    0.00022036729691042
 210    0.0016893634431675
 211    -0.00019475624914119
 212    0.00019918631214631
 213    0.00064159700383678
 214      0.01196963682605
 215    -0.045079909041744
 216    -0.0013925161274703
 217    -0.00095428531520419
 218     0.001650671683932
 219    -0.055887890286015
 220    -0.061074578885634
 221    0.0018025188500572
 222    1.658207875509e-05
 223    0.0019488623683917
 224    0.0090490035092037
 225     0.011807280878557
 226    0.00046338900794032
 227    -2.4883679735034e-05
 228    0.0010510010410748
