[Molden Format]
made by pyscf v[2.1.0]
[Atoms] (AU)
C   1   6     2.32946917320360    -0.63344186613258     2.37168943427863
C   2   6    -0.29669267073509     0.30039086476086     3.22269546913239
C   3   6    -2.28836574026819    -0.45088865332122     1.27613394164491
C   4   6    -1.50258360260379     0.48150977544368    -1.34195877174189
C   5   6     1.17077037184366    -0.47613539434541    -1.98531603085006
O   6   8     2.90615122545875     0.36947547242271    -0.06380660259594
O   7   8    -1.02480036707776    -0.78170410868758     5.58840958940515
O   8   8    -4.71990091118567     0.61286652808832     1.81907682367207
O   9   8    -3.21856263809797    -0.39246777018029    -3.24986406162526
C   10   6     2.14873576665020     0.54311106765225    -4.52137384344336
O   11   8     0.97527064535291    -0.64120108160005    -6.63217335814292
H   12   1     0.34900595904142    -0.48214283369541     6.76077111064570
H   13   1    -5.19719092819319     0.02690592056156     3.48444332437202
H   14   1    -0.83535721281623    -0.49952075513691    -6.37469817367093
H   15   1    -4.90002393620084     0.08874342853570    -2.71063260170675
O   16   8     4.22615893853768     0.10859122202201     4.07505454789134
H   17   1     4.38166639105427     1.93178575891951     3.94362220620171
H   18   1     2.36505838530753    -2.71537014510103     2.34202262384909
H   19   1    -0.22188597236806     2.38358526023277     3.34538215831753
H   20   1    -2.40897751016855    -2.53158672058258     1.22868291865708
H   21   1    -1.45404220764209     2.56502731408288    -1.31752650267738
H   22   1     1.14953551938192    -2.55944317338479    -2.06041941621865
H   23   1     1.89192576577406     2.61534694132780    -4.54974430175146
H   24   1     4.17463555575142     0.13656105839169    -4.65046670419078
[GTO]
1 0
 s    8 1.00
                  6665  0.00069158396281299
                  1000  0.0053257961529341
                   228   0.027060721042034
                 64.71    0.10165684614077
                 21.06     0.2745748236174
                 7.495    0.44829431892377
                 2.797    0.28490261071525
                0.5215   0.015194859206082
 s    8 1.00
                  6665  -0.00029326965268655
                  1000  -0.0023180354739745
                   228  -0.011499786038565
                 64.71  -0.046826727009787
                 21.06   -0.12846616875047
                 7.495   -0.30126627246289
                 2.797   -0.25563070233011
                0.5215      1.093793361012
 s    1 1.00
                0.1596                   1
 p    3 1.00
                 9.439   0.056979251590039
                 2.002    0.31320721150073
                0.5456    0.76037674173753
 p    1 1.00
                0.1517                   1
 d    1 1.00
                  0.55                   1

2 0
 s    8 1.00
                  6665  0.00069158396281299
                  1000  0.0053257961529341
                   228   0.027060721042034
                 64.71    0.10165684614077
                 21.06     0.2745748236174
                 7.495    0.44829431892377
                 2.797    0.28490261071525
                0.5215   0.015194859206082
 s    8 1.00
                  6665  -0.00029326965268655
                  1000  -0.0023180354739745
                   228  -0.011499786038565
                 64.71  -0.046826727009787
                 21.06   -0.12846616875047
                 7.495   -0.30126627246289
                 2.797   -0.25563070233011
                0.5215      1.093793361012
 s    1 1.00
                0.1596                   1
 p    3 1.00
                 9.439   0.056979251590039
                 2.002    0.31320721150073
                0.5456    0.76037674173753
 p    1 1.00
                0.1517                   1
 d    1 1.00
                  0.55                   1

3 0
 s    8 1.00
                  6665  0.00069158396281299
                  1000  0.0053257961529341
                   228   0.027060721042034
                 64.71    0.10165684614077
                 21.06     0.2745748236174
                 7.495    0.44829431892377
                 2.797    0.28490261071525
                0.5215   0.015194859206082
 s    8 1.00
                  6665  -0.00029326965268655
                  1000  -0.0023180354739745
                   228  -0.011499786038565
                 64.71  -0.046826727009787
                 21.06   -0.12846616875047
                 7.495   -0.30126627246289
                 2.797   -0.25563070233011
                0.5215      1.093793361012
 s    1 1.00
                0.1596                   1
 p    3 1.00
                 9.439   0.056979251590039
                 2.002    0.31320721150073
                0.5456    0.76037674173753
 p    1 1.00
                0.1517                   1
 d    1 1.00
                  0.55                   1

4 0
 s    8 1.00
                  6665  0.00069158396281299
                  1000  0.0053257961529341
                   228   0.027060721042034
                 64.71    0.10165684614077
                 21.06     0.2745748236174
                 7.495    0.44829431892377
                 2.797    0.28490261071525
                0.5215   0.015194859206082
 s    8 1.00
                  6665  -0.00029326965268655
                  1000  -0.0023180354739745
                   228  -0.011499786038565
                 64.71  -0.046826727009787
                 21.06   -0.12846616875047
                 7.495   -0.30126627246289
                 2.797   -0.25563070233011
                0.5215      1.093793361012
 s    1 1.00
                0.1596                   1
 p    3 1.00
                 9.439   0.056979251590039
                 2.002    0.31320721150073
                0.5456    0.76037674173753
 p    1 1.00
                0.1517                   1
 d    1 1.00
                  0.55                   1

5 0
 s    8 1.00
                  6665  0.00069158396281299
                  1000  0.0053257961529341
                   228   0.027060721042034
                 64.71    0.10165684614077
                 21.06     0.2745748236174
                 7.495    0.44829431892377
                 2.797    0.28490261071525
                0.5215   0.015194859206082
 s    8 1.00
                  6665  -0.00029326965268655
                  1000  -0.0023180354739745
                   228  -0.011499786038565
                 64.71  -0.046826727009787
                 21.06   -0.12846616875047
                 7.495   -0.30126627246289
                 2.797   -0.25563070233011
                0.5215      1.093793361012
 s    1 1.00
                0.1596                   1
 p    3 1.00
                 9.439   0.056979251590039
                 2.002    0.31320721150073
                0.5456    0.76037674173753
 p    1 1.00
                0.1517                   1
 d    1 1.00
                  0.55                   1

6 0
 s    8 1.00
                 11720  0.00070964594651845
                  1759  0.0054672722921914
                 400.8   0.027823118610189
                 113.7    0.10474773971146
                 37.03    0.28292084635691
                 13.27    0.44849523869833
                 5.025    0.27081688521277
                 1.013    0.01545029160744
 s    8 1.00
                 11720  -0.00031444341168873
                  1759  -0.0024821376810179
                 400.8  -0.012316355381583
                 113.7  -0.050538917343672
                 37.03   -0.13938490331632
                 13.27   -0.32507749481778
                 5.025   -0.22984830758785
                 1.013     1.0953793467883
 s    1 1.00
                0.3023                   1
 p    3 1.00
                  17.7   0.062679166281506
                 3.854    0.33353656587936
                 1.046    0.74123964163973
 p    1 1.00
                0.2753                   1
 d    1 1.00
                 1.185                   1

7 0
 s    8 1.00
                 11720  0.00070964594651845
                  1759  0.0054672722921914
                 400.8   0.027823118610189
                 113.7    0.10474773971146
                 37.03    0.28292084635691
                 13.27    0.44849523869833
                 5.025    0.27081688521277
                 1.013    0.01545029160744
 s    8 1.00
                 11720  -0.00031444341168873
                  1759  -0.0024821376810179
                 400.8  -0.012316355381583
                 113.7  -0.050538917343672
                 37.03   -0.13938490331632
                 13.27   -0.32507749481778
                 5.025   -0.22984830758785
                 1.013     1.0953793467883
 s    1 1.00
                0.3023                   1
 p    3 1.00
                  17.7   0.062679166281506
                 3.854    0.33353656587936
                 1.046    0.74123964163973
 p    1 1.00
                0.2753                   1
 d    1 1.00
                 1.185                   1

8 0
 s    8 1.00
                 11720  0.00070964594651845
                  1759  0.0054672722921914
                 400.8   0.027823118610189
                 113.7    0.10474773971146
                 37.03    0.28292084635691
                 13.27    0.44849523869833
                 5.025    0.27081688521277
                 1.013    0.01545029160744
 s    8 1.00
                 11720  -0.00031444341168873
                  1759  -0.0024821376810179
                 400.8  -0.012316355381583
                 113.7  -0.050538917343672
                 37.03   -0.13938490331632
                 13.27   -0.32507749481778
                 5.025   -0.22984830758785
                 1.013     1.0953793467883
 s    1 1.00
                0.3023                   1
 p    3 1.00
                  17.7   0.062679166281506
                 3.854    0.33353656587936
                 1.046    0.74123964163973
 p    1 1.00
                0.2753                   1
 d    1 1.00
                 1.185                   1

9 0
 s    8 1.00
                 11720  0.00070964594651845
                  1759  0.0054672722921914
                 400.8   0.027823118610189
                 113.7    0.10474773971146
                 37.03    0.28292084635691
                 13.27    0.44849523869833
                 5.025    0.27081688521277
                 1.013    0.01545029160744
 s    8 1.00
                 11720  -0.00031444341168873
                  1759  -0.0024821376810179
                 400.8  -0.012316355381583
                 113.7  -0.050538917343672
                 37.03   -0.13938490331632
                 13.27   -0.32507749481778
                 5.025   -0.22984830758785
                 1.013     1.0953793467883
 s    1 1.00
                0.3023                   1
 p    3 1.00
                  17.7   0.062679166281506
                 3.854    0.33353656587936
                 1.046    0.74123964163973
 p    1 1.00
                0.2753                   1
 d    1 1.00
                 1.185                   1

10 0
 s    8 1.00
                  6665  0.00069158396281299
                  1000  0.0053257961529341
                   228   0.027060721042034
                 64.71    0.10165684614077
                 21.06     0.2745748236174
                 7.495    0.44829431892377
                 2.797    0.28490261071525
                0.5215   0.015194859206082
 s    8 1.00
                  6665  -0.00029326965268655
                  1000  -0.0023180354739745
                   228  -0.011499786038565
                 64.71  -0.046826727009787
                 21.06   -0.12846616875047
                 7.495   -0.30126627246289
                 2.797   -0.25563070233011
                0.5215      1.093793361012
 s    1 1.00
                0.1596                   1
 p    3 1.00
                 9.439   0.056979251590039
                 2.002    0.31320721150073
                0.5456    0.76037674173753
 p    1 1.00
                0.1517                   1
 d    1 1.00
                  0.55                   1

11 0
 s    8 1.00
                 11720  0.00070964594651845
                  1759  0.0054672722921914
                 400.8   0.027823118610189
                 113.7    0.10474773971146
                 37.03    0.28292084635691
                 13.27    0.44849523869833
                 5.025    0.27081688521277
                 1.013    0.01545029160744
 s    8 1.00
                 11720  -0.00031444341168873
                  1759  -0.0024821376810179
                 400.8  -0.012316355381583
                 113.7  -0.050538917343672
                 37.03   -0.13938490331632
                 13.27   -0.32507749481778
                 5.025   -0.22984830758785
                 1.013     1.0953793467883
 s    1 1.00
                0.3023                   1
 p    3 1.00
                  17.7   0.062679166281506
                 3.854    0.33353656587936
                 1.046    0.74123964163973
 p    1 1.00
                0.2753                   1
 d    1 1.00
                 1.185                   1

12 0
 s    3 1.00
                 13.01   0.033498726389998
                 1.962    0.23480080117413
                0.4446     0.8136829578829
 s    1 1.00
                 0.122                   1
 p    1 1.00
                 0.727                   1

13 0
 s    3 1.00
                 13.01   0.033498726389998
                 1.962    0.23480080117413
                0.4446     0.8136829578829
 s    1 1.00
                 0.122                   1
 p    1 1.00
                 0.727                   1

14 0
 s    3 1.00
                 13.01   0.033498726389998
                 1.962    0.23480080117413
                0.4446     0.8136829578829
 s    1 1.00
                 0.122                   1
 p    1 1.00
                 0.727                   1

15 0
 s    3 1.00
                 13.01   0.033498726389998
                 1.962    0.23480080117413
                0.4446     0.8136829578829
 s    1 1.00
                 0.122                   1
 p    1 1.00
                 0.727                   1

16 0
 s    8 1.00
                 11720  0.00070964594651845
                  1759  0.0054672722921914
                 400.8   0.027823118610189
                 113.7    0.10474773971146
                 37.03    0.28292084635691
                 13.27    0.44849523869833
                 5.025    0.27081688521277
                 1.013    0.01545029160744
 s    8 1.00
                 11720  -0.00031444341168873
                  1759  -0.0024821376810179
                 400.8  -0.012316355381583
                 113.7  -0.050538917343672
                 37.03   -0.13938490331632
                 13.27   -0.32507749481778
                 5.025   -0.22984830758785
                 1.013     1.0953793467883
 s    1 1.00
                0.3023                   1
 p    3 1.00
                  17.7   0.062679166281506
                 3.854    0.33353656587936
                 1.046    0.74123964163973
 p    1 1.00
                0.2753                   1
 d    1 1.00
                 1.185                   1

17 0
 s    3 1.00
                 13.01   0.033498726389998
                 1.962    0.23480080117413
                0.4446     0.8136829578829
 s    1 1.00
                 0.122                   1
 p    1 1.00
                 0.727                   1

18 0
 s    3 1.00
                 13.01   0.033498726389998
                 1.962    0.23480080117413
                0.4446     0.8136829578829
 s    1 1.00
                 0.122                   1
 p    1 1.00
                 0.727                   1

19 0
 s    3 1.00
                 13.01   0.033498726389998
                 1.962    0.23480080117413
                0.4446     0.8136829578829
 s    1 1.00
                 0.122                   1
 p    1 1.00
                 0.727                   1

20 0
 s    3 1.00
                 13.01   0.033498726389998
                 1.962    0.23480080117413
                0.4446     0.8136829578829
 s    1 1.00
                 0.122                   1
 p    1 1.00
                 0.727                   1

21 0
 s    3 1.00
                 13.01   0.033498726389998
                 1.962    0.23480080117413
                0.4446     0.8136829578829
 s    1 1.00
                 0.122                   1
 p    1 1.00
                 0.727                   1

22 0
 s    3 1.00
                 13.01   0.033498726389998
                 1.962    0.23480080117413
                0.4446     0.8136829578829
 s    1 1.00
                 0.122                   1
 p    1 1.00
                 0.727                   1

23 0
 s    3 1.00
                 13.01   0.033498726389998
                 1.962    0.23480080117413
                0.4446     0.8136829578829
 s    1 1.00
                 0.122                   1
 p    1 1.00
                 0.727                   1

24 0
 s    3 1.00
                 13.01   0.033498726389998
                 1.962    0.23480080117413
                0.4446     0.8136829578829
 s    1 1.00
                 0.122                   1
 p    1 1.00
                 0.727                   1

[5d]
[7f]
[9g]

[MO]
 Sym= A
 Ene=     -20.5892274
 Spin= Alpha
 Occup=    2.00000
   1    -0.00031927099810038
   2    0.0050125721500022
   3     0.013985834804398
   4    -0.0078846968172236
   5    -0.0068265572902263
   6    0.00051251439857455
   7    0.0024860371916001
   8    -0.009500246994408
   9    0.0065665892232528
  10    -0.00041610975355307
  11    0.0019643155476931
  12    -0.00081542665813849
  13    0.0020623646085895
  14    0.00023827304652922
  15    0.0025277336364254
  16     0.020388552580913
  17     0.043484756871008
  18     -0.02140733766904
  19    -0.0017342761749848
  20    -0.028963952455058
  21     -0.01197645579604
  22    0.0016413912789504
  23     -0.02832222506037
  24    0.0070595690581721
  25    -0.0019330912103032
  26    -0.010720796022084
  27    0.0060640788039449
  28     -0.01124951018616
  29     0.009295653273498
  30     -0.19887181602861
  31     -0.12226204757427
  32     0.046921386088334
  33      0.37558113377258
  34    -0.00051941806673238
  35     0.011380452723754
  36      0.15560215929641
  37    -0.0087727727146932
  38     0.011395634395049
  39    -2.313109134845e-05
  40    -0.00059070957452208
  41     0.021984194719401
  42    -0.0017668971025178
  43    0.0025204152593965
  44     0.019728768276716
  45     0.035068232079379
  46    -0.0039544951747875
  47    -0.0044683666692151
  48     0.033977263401293
  49     0.014292688735159
  50     0.002113240542236
  51     0.020759990390177
  52     0.005593671345341
  53    0.0033849012891566
  54     0.013408968098138
  55    0.0090430134386793
  56    -0.0054599022908211
  57    2.6242639564422e-06
  58    0.0055642906583419
  59    0.0091084791222774
  60    -0.0076937690455607
  61    -0.0072048819230962
  62    0.0040738436632841
  63     0.002676839930291
  64    -0.012137419937734
  65     -0.01039232419948
  66    0.0016564261149924
  67    -0.0019044336277987
  68    0.00029171797690945
  69    0.00063213359791695
  70    0.00098121120206186
  71    -0.0012417007622871
  72    -0.0035377899398918
  73    0.0058912006869123
  74    0.0039042373784599
  75    0.0025657200396281
  76    -0.00098829876068165
  77    0.00061616854414819
  78    0.0021500246495263
  79    -0.00052591900010625
  80    -0.00025160037970399
  81    -0.00016916907751956
  82    -1.8111835487173e-05
  83    0.0003387516173826
  84    7.5814720307162e-05
  85    -0.00042176882146264
  86     0.002538862050916
  87     0.016676913784081
  88    0.0025863466171533
  89    0.0013305553570126
  90    -0.009604002322146
  91    0.00054822451563448
  92    -0.00041796896116775
  93    -0.010693190534383
  94    0.0004198017527301
  95    9.085718242347e-05
  96    -0.00022789523923523
  97    0.00031188631091252
  98    -0.0008425439828622
  99    0.0027416125293759
 100     0.013628955042733
 101    0.0064695752317455
 102     0.016700044683525
 103    -0.018045108093137
 104    -0.00074993507075147
 105    0.0077891711359486
 106    -0.036890256977761
 107    -0.0060294925368693
 108     0.001988108667513
 109    6.0895657058288e-05
 110    -0.0018685272546816
 111    0.0038431999410923
 112    0.0060750111839753
 113    -0.00055049000187458
 114    0.0023293073520148
 115     0.015365741556653
 116    0.0033807875208878
 117    0.0011287832465848
 118    0.0082417061755408
 119    0.0043469832781523
 120    -0.00034549853614892
 121     0.009145090315108
 122    0.00075301173144853
 123    1.7297211745193e-05
 124    0.00026128115599562
 125    0.00010999439054929
 126    -0.00067541933685471
 127    0.00083592601267815
 128    0.00068431236536888
 129    -0.010967156636187
 130    0.00010789635982056
 131    0.0029595031746959
 132    -0.0024593039769914
 133     0.003115973020565
 134    0.0056789284082206
 135    -0.0028226120644493
 136    -0.00061022539854683
 137    0.0004559753270199
 138    0.00035210218332751
 139    -2.4841782563894e-05
 140    5.5327870904804e-05
 141    -0.00020882170907567
 142    -0.0003538623512121
 143    0.0019083540933133
 144    -0.00050838999775737
 145    -0.00024137646474557
 146    -0.00014954471273289
 147    0.0002774924272106
 148    -8.5726226873759e-05
 149    0.0014454468390268
 150    -3.6259511822624e-05
 151    2.188532921616e-05
 152     1.36178655386e-05
 153    -2.7823334213316e-05
 154    3.2203214307017e-05
 155    -0.0027664669535474
 156    0.0026838642626527
 157    0.00062895351818119
 158    -0.00018263994054749
 159    -1.3210539450088e-05
 160     0.013256471164764
 161    0.0031063127143257
 162    0.00052445662062682
 163    -0.0010811006563989
 164    -0.00070490125473452
 165    -0.00021909153635911
 166    0.0021892432422115
 167    4.0108951093199e-05
 168    1.514019402459e-06
 169    0.00021470853261897
 170    0.0012352567690746
 171    0.0019498329791963
 172    0.00091700620694314
 173    0.00028739093551063
 174    0.0013580807860334
 175    0.00064037206334835
 176    0.00042253162571415
 177    -0.0059042601763643
 178    -0.00012478279632266
 179     0.002573834165234
 180    0.0015515434590612
 181    0.0007237385339891
 182    0.0042319004292046
 183    0.0024997759559049
 184    -0.00012976999359614
 185    -0.00029584209356463
 186    -0.00012120421185088
 187    -0.0002471418834679
 188    3.0327556904502e-05
 189    0.0018369175155216
 190    0.00076719732302238
 191    0.00017246275655151
 192    -0.00024946261463638
 193    -8.2114231307821e-05
 194    0.0049566274798897
 195     -0.00688106985273
 196    -0.00012766769894327
 197    0.0010017247809839
 198    -0.00013091850109546
 199    -0.020776432258514
 200    -0.047599621787152
 201    -0.00011337253186671
 202    -0.0011543551636052
 203    0.0002345282485325
 204     -0.43717856487676
 205     -0.14130517074268
 206    -0.0040972496681551
 207    -0.033943756977862
 208    -0.00053944240078047
 209    -0.021043673316445
 210    -0.047059463322203
 211    -0.0004592431685592
 212     -0.00119292378641
 213    -0.00030691290559293
 214    0.0050732135975157
 215    -0.0065990115978867
 216    -5.6172077978513e-05
 217    0.0010348082801994
 218    0.00014809081636124
 219    0.0027865890998399
 220    0.0026807338155906
 221    7.4941007840871e-05
 222    -0.00030548597680357
 223    -0.00015803802576025
 224    -0.0011394219889474
 225    -0.00076374486797145
 226    1.1605249979872e-05
 227    -8.052228727039e-05
 228    -3.4278530654726e-05
