[Molden Format]
made by pyscf v[2.1.0]
[Atoms] (AU)
C   1   6     2.32946917320360    -0.63344186613258     2.37168943427863
C   2   6    -0.29669267073509     0.30039086476086     3.22269546913239
C   3   6    -2.28836574026819    -0.45088865332122     1.27613394164491
C   4   6    -1.50258360260379     0.48150977544368    -1.34195877174189
C   5   6     1.17077037184366    -0.47613539434541    -1.98531603085006
O   6   8     2.90615122545875     0.36947547242271    -0.06380660259594
O   7   8    -1.02480036707776    -0.78170410868758     5.58840958940515
O   8   8    -4.71990091118567     0.61286652808832     1.81907682367207
O   9   8    -3.21856263809797    -0.39246777018029    -3.24986406162526
C   10   6     2.14873576665020     0.54311106765225    -4.52137384344336
O   11   8     0.97527064535291    -0.64120108160005    -6.63217335814292
H   12   1     0.34900595904142    -0.48214283369541     6.76077111064570
H   13   1    -5.19719092819319     0.02690592056156     3.48444332437202
H   14   1    -0.83535721281623    -0.49952075513691    -6.37469817367093
H   15   1    -4.90002393620084     0.08874342853570    -2.71063260170675
O   16   8     4.22615893853768     0.10859122202201     4.07505454789134
H   17   1     4.38166639105427     1.93178575891951     3.94362220620171
H   18   1     2.36505838530753    -2.71537014510103     2.34202262384909
H   19   1    -0.22188597236806     2.38358526023277     3.34538215831753
H   20   1    -2.40897751016855    -2.53158672058258     1.22868291865708
H   21   1    -1.45404220764209     2.56502731408288    -1.31752650267738
H   22   1     1.14953551938192    -2.55944317338479    -2.06041941621865
H   23   1     1.89192576577406     2.61534694132780    -4.54974430175146
H   24   1     4.17463555575142     0.13656105839169    -4.65046670419078
[GTO]
1 0
 s    8 1.00
                  6665  0.00069158396281299
                  1000  0.0053257961529341
                   228   0.027060721042034
                 64.71    0.10165684614077
                 21.06     0.2745748236174
                 7.495    0.44829431892377
                 2.797    0.28490261071525
                0.5215   0.015194859206082
 s    8 1.00
                  6665  -0.00029326965268655
                  1000  -0.0023180354739745
                   228  -0.011499786038565
                 64.71  -0.046826727009787
                 21.06   -0.12846616875047
                 7.495   -0.30126627246289
                 2.797   -0.25563070233011
                0.5215      1.093793361012
 s    1 1.00
                0.1596                   1
 p    3 1.00
                 9.439   0.056979251590039
                 2.002    0.31320721150073
                0.5456    0.76037674173753
 p    1 1.00
                0.1517                   1
 d    1 1.00
                  0.55                   1

2 0
 s    8 1.00
                  6665  0.00069158396281299
                  1000  0.0053257961529341
                   228   0.027060721042034
                 64.71    0.10165684614077
                 21.06     0.2745748236174
                 7.495    0.44829431892377
                 2.797    0.28490261071525
                0.5215   0.015194859206082
 s    8 1.00
                  6665  -0.00029326965268655
                  1000  -0.0023180354739745
                   228  -0.011499786038565
                 64.71  -0.046826727009787
                 21.06   -0.12846616875047
                 7.495   -0.30126627246289
                 2.797   -0.25563070233011
                0.5215      1.093793361012
 s    1 1.00
                0.1596                   1
 p    3 1.00
                 9.439   0.056979251590039
                 2.002    0.31320721150073
                0.5456    0.76037674173753
 p    1 1.00
                0.1517                   1
 d    1 1.00
                  0.55                   1

3 0
 s    8 1.00
                  6665  0.00069158396281299
                  1000  0.0053257961529341
                   228   0.027060721042034
                 64.71    0.10165684614077
                 21.06     0.2745748236174
                 7.495    0.44829431892377
                 2.797    0.28490261071525
                0.5215   0.015194859206082
 s    8 1.00
                  6665  -0.00029326965268655
                  1000  -0.0023180354739745
                   228  -0.011499786038565
                 64.71  -0.046826727009787
                 21.06   -0.12846616875047
                 7.495   -0.30126627246289
                 2.797   -0.25563070233011
                0.5215      1.093793361012
 s    1 1.00
                0.1596                   1
 p    3 1.00
                 9.439   0.056979251590039
                 2.002    0.31320721150073
                0.5456    0.76037674173753
 p    1 1.00
                0.1517                   1
 d    1 1.00
                  0.55                   1

4 0
 s    8 1.00
                  6665  0.00069158396281299
                  1000  0.0053257961529341
                   228   0.027060721042034
                 64.71    0.10165684614077
                 21.06     0.2745748236174
                 7.495    0.44829431892377
                 2.797    0.28490261071525
                0.5215   0.015194859206082
 s    8 1.00
                  6665  -0.00029326965268655
                  1000  -0.0023180354739745
                   228  -0.011499786038565
                 64.71  -0.046826727009787
                 21.06   -0.12846616875047
                 7.495   -0.30126627246289
                 2.797   -0.25563070233011
                0.5215      1.093793361012
 s    1 1.00
                0.1596                   1
 p    3 1.00
                 9.439   0.056979251590039
                 2.002    0.31320721150073
                0.5456    0.76037674173753
 p    1 1.00
                0.1517                   1
 d    1 1.00
                  0.55                   1

5 0
 s    8 1.00
                  6665  0.00069158396281299
                  1000  0.0053257961529341
                   228   0.027060721042034
                 64.71    0.10165684614077
                 21.06     0.2745748236174
                 7.495    0.44829431892377
                 2.797    0.28490261071525
                0.5215   0.015194859206082
 s    8 1.00
                  6665  -0.00029326965268655
                  1000  -0.0023180354739745
                   228  -0.011499786038565
                 64.71  -0.046826727009787
                 21.06   -0.12846616875047
                 7.495   -0.30126627246289
                 2.797   -0.25563070233011
                0.5215      1.093793361012
 s    1 1.00
                0.1596                   1
 p    3 1.00
                 9.439   0.056979251590039
                 2.002    0.31320721150073
                0.5456    0.76037674173753
 p    1 1.00
                0.1517                   1
 d    1 1.00
                  0.55                   1

6 0
 s    8 1.00
                 11720  0.00070964594651845
                  1759  0.0054672722921914
                 400.8   0.027823118610189
                 113.7    0.10474773971146
                 37.03    0.28292084635691
                 13.27    0.44849523869833
                 5.025    0.27081688521277
                 1.013    0.01545029160744
 s    8 1.00
                 11720  -0.00031444341168873
                  1759  -0.0024821376810179
                 400.8  -0.012316355381583
                 113.7  -0.050538917343672
                 37.03   -0.13938490331632
                 13.27   -0.32507749481778
                 5.025   -0.22984830758785
                 1.013     1.0953793467883
 s    1 1.00
                0.3023                   1
 p    3 1.00
                  17.7   0.062679166281506
                 3.854    0.33353656587936
                 1.046    0.74123964163973
 p    1 1.00
                0.2753                   1
 d    1 1.00
                 1.185                   1

7 0
 s    8 1.00
                 11720  0.00070964594651845
                  1759  0.0054672722921914
                 400.8   0.027823118610189
                 113.7    0.10474773971146
                 37.03    0.28292084635691
                 13.27    0.44849523869833
                 5.025    0.27081688521277
                 1.013    0.01545029160744
 s    8 1.00
                 11720  -0.00031444341168873
                  1759  -0.0024821376810179
                 400.8  -0.012316355381583
                 113.7  -0.050538917343672
                 37.03   -0.13938490331632
                 13.27   -0.32507749481778
                 5.025   -0.22984830758785
                 1.013     1.0953793467883
 s    1 1.00
                0.3023                   1
 p    3 1.00
                  17.7   0.062679166281506
                 3.854    0.33353656587936
                 1.046    0.74123964163973
 p    1 1.00
                0.2753                   1
 d    1 1.00
                 1.185                   1

8 0
 s    8 1.00
                 11720  0.00070964594651845
                  1759  0.0054672722921914
                 400.8   0.027823118610189
                 113.7    0.10474773971146
                 37.03    0.28292084635691
                 13.27    0.44849523869833
                 5.025    0.27081688521277
                 1.013    0.01545029160744
 s    8 1.00
                 11720  -0.00031444341168873
                  1759  -0.0024821376810179
                 400.8  -0.012316355381583
                 113.7  -0.050538917343672
                 37.03   -0.13938490331632
                 13.27   -0.32507749481778
                 5.025   -0.22984830758785
                 1.013     1.0953793467883
 s    1 1.00
                0.3023                   1
 p    3 1.00
                  17.7   0.062679166281506
                 3.854    0.33353656587936
                 1.046    0.74123964163973
 p    1 1.00
                0.2753                   1
 d    1 1.00
                 1.185                   1

9 0
 s    8 1.00
                 11720  0.00070964594651845
                  1759  0.0054672722921914
                 400.8   0.027823118610189
                 113.7    0.10474773971146
                 37.03    0.28292084635691
                 13.27    0.44849523869833
                 5.025    0.27081688521277
                 1.013    0.01545029160744
 s    8 1.00
                 11720  -0.00031444341168873
                  1759  -0.0024821376810179
                 400.8  -0.012316355381583
                 113.7  -0.050538917343672
                 37.03   -0.13938490331632
                 13.27   -0.32507749481778
                 5.025   -0.22984830758785
                 1.013     1.0953793467883
 s    1 1.00
                0.3023                   1
 p    3 1.00
                  17.7   0.062679166281506
                 3.854    0.33353656587936
                 1.046    0.74123964163973
 p    1 1.00
                0.2753                   1
 d    1 1.00
                 1.185                   1

10 0
 s    8 1.00
                  6665  0.00069158396281299
                  1000  0.0053257961529341
                   228   0.027060721042034
                 64.71    0.10165684614077
                 21.06     0.2745748236174
                 7.495    0.44829431892377
                 2.797    0.28490261071525
                0.5215   0.015194859206082
 s    8 1.00
                  6665  -0.00029326965268655
                  1000  -0.0023180354739745
                   228  -0.011499786038565
                 64.71  -0.046826727009787
                 21.06   -0.12846616875047
                 7.495   -0.30126627246289
                 2.797   -0.25563070233011
                0.5215      1.093793361012
 s    1 1.00
                0.1596                   1
 p    3 1.00
                 9.439   0.056979251590039
                 2.002    0.31320721150073
                0.5456    0.76037674173753
 p    1 1.00
                0.1517                   1
 d    1 1.00
                  0.55                   1

11 0
 s    8 1.00
                 11720  0.00070964594651845
                  1759  0.0054672722921914
                 400.8   0.027823118610189
                 113.7    0.10474773971146
                 37.03    0.28292084635691
                 13.27    0.44849523869833
                 5.025    0.27081688521277
                 1.013    0.01545029160744
 s    8 1.00
                 11720  -0.00031444341168873
                  1759  -0.0024821376810179
                 400.8  -0.012316355381583
                 113.7  -0.050538917343672
                 37.03   -0.13938490331632
                 13.27   -0.32507749481778
                 5.025   -0.22984830758785
                 1.013     1.0953793467883
 s    1 1.00
                0.3023                   1
 p    3 1.00
                  17.7   0.062679166281506
                 3.854    0.33353656587936
                 1.046    0.74123964163973
 p    1 1.00
                0.2753                   1
 d    1 1.00
                 1.185                   1

12 0
 s    3 1.00
                 13.01   0.033498726389998
                 1.962    0.23480080117413
                0.4446     0.8136829578829
 s    1 1.00
                 0.122                   1
 p    1 1.00
                 0.727                   1

13 0
 s    3 1.00
                 13.01   0.033498726389998
                 1.962    0.23480080117413
                0.4446     0.8136829578829
 s    1 1.00
                 0.122                   1
 p    1 1.00
                 0.727                   1

14 0
 s    3 1.00
                 13.01   0.033498726389998
                 1.962    0.23480080117413
                0.4446     0.8136829578829
 s    1 1.00
                 0.122                   1
 p    1 1.00
                 0.727                   1

15 0
 s    3 1.00
                 13.01   0.033498726389998
                 1.962    0.23480080117413
                0.4446     0.8136829578829
 s    1 1.00
                 0.122                   1
 p    1 1.00
                 0.727                   1

16 0
 s    8 1.00
                 11720  0.00070964594651845
                  1759  0.0054672722921914
                 400.8   0.027823118610189
                 113.7    0.10474773971146
                 37.03    0.28292084635691
                 13.27    0.44849523869833
                 5.025    0.27081688521277
                 1.013    0.01545029160744
 s    8 1.00
                 11720  -0.00031444341168873
                  1759  -0.0024821376810179
                 400.8  -0.012316355381583
                 113.7  -0.050538917343672
                 37.03   -0.13938490331632
                 13.27   -0.32507749481778
                 5.025   -0.22984830758785
                 1.013     1.0953793467883
 s    1 1.00
                0.3023                   1
 p    3 1.00
                  17.7   0.062679166281506
                 3.854    0.33353656587936
                 1.046    0.74123964163973
 p    1 1.00
                0.2753                   1
 d    1 1.00
                 1.185                   1

17 0
 s    3 1.00
                 13.01   0.033498726389998
                 1.962    0.23480080117413
                0.4446     0.8136829578829
 s    1 1.00
                 0.122                   1
 p    1 1.00
                 0.727                   1

18 0
 s    3 1.00
                 13.01   0.033498726389998
                 1.962    0.23480080117413
                0.4446     0.8136829578829
 s    1 1.00
                 0.122                   1
 p    1 1.00
                 0.727                   1

19 0
 s    3 1.00
                 13.01   0.033498726389998
                 1.962    0.23480080117413
                0.4446     0.8136829578829
 s    1 1.00
                 0.122                   1
 p    1 1.00
                 0.727                   1

20 0
 s    3 1.00
                 13.01   0.033498726389998
                 1.962    0.23480080117413
                0.4446     0.8136829578829
 s    1 1.00
                 0.122                   1
 p    1 1.00
                 0.727                   1

21 0
 s    3 1.00
                 13.01   0.033498726389998
                 1.962    0.23480080117413
                0.4446     0.8136829578829
 s    1 1.00
                 0.122                   1
 p    1 1.00
                 0.727                   1

22 0
 s    3 1.00
                 13.01   0.033498726389998
                 1.962    0.23480080117413
                0.4446     0.8136829578829
 s    1 1.00
                 0.122                   1
 p    1 1.00
                 0.727                   1

23 0
 s    3 1.00
                 13.01   0.033498726389998
                 1.962    0.23480080117413
                0.4446     0.8136829578829
 s    1 1.00
                 0.122                   1
 p    1 1.00
                 0.727                   1

24 0
 s    3 1.00
                 13.01   0.033498726389998
                 1.962    0.23480080117413
                0.4446     0.8136829578829
 s    1 1.00
                 0.122                   1
 p    1 1.00
                 0.727                   1

[5d]
[7f]
[9g]

[MO]
 Sym= A
 Ene=     -20.5892274
 Spin= Alpha
 Occup=    2.00000
   1    -0.00063398473518817
   2    -0.0089982708502513
   3    -0.019872908649504
   4    0.0091759215883159
   5    -0.0028136388187579
   6    -0.0085685953821289
   7    0.0033183726874164
   8    -0.020903341619163
   9     0.003805649932256
  10    -0.00051012705678434
  11    0.0010522079420094
  12    -0.00092800088555679
  13    -0.00012001631911299
  14    -0.0011079209706979
  15    -0.001527443726357
  16    -0.026730651302531
  17     -0.03425917438028
  18     0.014773827402369
  19     0.016996641172854
  20    -0.037324744409302
  21     0.022663570593305
  22      0.02284699850752
  23    -0.028441687755905
  24     0.013828684645549
  25     0.016937354730041
  26     0.003593369055678
  27    -0.0010850929110555
  28    -0.0074266714543805
  29    -0.00042666288911305
  30     0.013071217405774
  31     0.062759998422732
  32     0.017045255191732
  33    0.0050086032763622
  34     0.018277929656225
  35     0.016641734966825
  36     0.011088218987413
  37    -0.0096952317136277
  38    0.00031507588227409
  39    -0.00086627979069441
  40    -4.0266382888577e-05
  41    -0.00026879062018051
  42    -0.0013378362345796
  43    0.0022402630836836
  44    -0.0016687674168144
  45    -0.051773982870887
  46    0.0034698720690772
  47     0.003547211665352
  48    -0.0062890886997409
  49    0.0036842201374034
  50     0.014309368142852
  51     -0.02327452777382
  52    0.00057655915733969
  53    0.0026559409955759
  54    0.0013900623687935
  55    -0.00033749961540683
  56    -0.00054809697460074
  57    -0.0010680067384054
  58    -0.0023933248222938
  59      0.01675564814453
  60    0.00090481956017695
  61    -3.4169321925363e-05
  62    -0.00062761897774111
  63    -0.0039949150236731
  64    0.0038818445899854
  65    0.0038246763130127
  66    0.0001589375997343
  67    0.00024848006908529
  68    0.00023384010725126
  69    0.00028552765868349
  70    -3.6553209962898e-05
  71    -0.00040445780141648
  72    0.00034330489772889
  73    0.0051560701067167
  74    -0.0011764256926731
  75    -0.00046258386780224
  76    0.0020243080766502
  77     0.002130277028733
  78    0.00042417615772302
  79    0.0076531690115842
  80    6.5987778180952e-05
  81    8.665791458081e-06
  82    -0.00024541670451284
  83    -7.077277180772e-05
  84    -5.0531687588293e-05
  85    -0.0056542919081651
  86      0.22663837832808
  87      0.14414077769857
  88      0.30531385136691
  89     0.060382683158563
  90      0.28365191918189
  91      0.14711234630829
  92     0.033447338616535
  93       0.1218629626886
  94    -0.0057133508987322
  95     0.011626502150167
  96    0.0055325767455587
  97    0.0096524648353093
  98    0.0063851661249127
  99    -0.00073831225368437
 100    0.00081700619129732
 101    0.0080517948493112
 102    0.00050386419060502
 103    -0.0022325808179396
 104    0.0030154366366775
 105    -0.0031608337163329
 106    -0.0035005754158627
 107    0.0073892607744052
 108    -0.00023736364729675
 109    0.00012748075434108
 110    -0.00028878490052022
 111    0.00014137339421773
 112    -4.1091565956448e-05
 113    -3.3252880735988e-05
 114    0.0012407787171294
 115    0.0044595965934847
 116    0.0012698734915691
 117    0.00046120718765492
 118    0.0032192057247403
 119    0.0022510290359847
 120    -0.0013349193238755
 121    0.0058540450873777
 122    -0.00012057087120751
 123    -9.2593743522326e-05
 124    -2.9797465825391e-05
 125    -2.0964983138134e-05
 126    -2.6991761756496e-05
 127    0.00048849154420752
 128    0.00093680457510016
 129    -0.004339099775134
 130    -0.00027587497944367
 131    -3.731479037419e-06
 132    0.00015918543105353
 133     0.005258968851717
 134    -0.0014460346728746
 135    -0.0019611311585246
 136    -0.00017988790125081
 137    0.00024803085170483
 138    -0.00011574209691816
 139    -3.4375617669097e-05
 140    -9.7755415044824e-05
 141    -0.00024170299140016
 142    -0.00039318633589199
 143    0.0022856354519564
 144    -0.00016862090981471
 145    -2.2444551843469e-05
 146    -0.00014956920995531
 147    -0.0010909820547983
 148    0.00054438451751181
 149    0.00054948622638792
 150    2.6032387536059e-06
 151    -2.5271388539746e-05
 152    2.6010861507521e-05
 153    3.0277087594623e-05
 154    -2.1206167511915e-05
 155      0.41561578757641
 156     0.067112435608624
 157     -0.04487831267455
 158    -0.0079690379542161
 159    -0.041686530739484
 160    -0.0029140221883504
 161    -0.011017070487074
 162    -0.0010818555896386
 163    -0.00041951147461796
 164    -3.9716793159309e-05
 165    -0.00052589018715742
 166    -0.0012825602665419
 167    -0.00013463786636492
 168    4.6681239295944e-05
 169    -2.2581271390315e-06
 170    0.00071236512328561
 171    0.0010831308732449
 172    0.00023642801823437
 173    0.0001248600667595
 174    1.9839371246824e-05
 175    -0.0011557662567929
 176    -0.0028804906633309
 177    0.0047627223786368
 178    0.0040568918482493
 179    0.00048195883459839
 180    -0.0047743052991999
 181    -0.00078605873236294
 182     0.002800938345801
 183    -0.0055998078244896
 184    0.00029719678196994
 185    -0.00074745458686477
 186    -0.00018592584507948
 187    -7.7437675716467e-06
 188    7.8356803992529e-05
 189    -0.00094601086556429
 190    0.0025230686902188
 191    0.00064002577365111
 192    0.00045071214249099
 193    -0.00090730885838432
 194    -0.0036207751093397
 195    -0.006265986180758
 196    0.00012044178869197
 197    -0.00050885665950489
 198    -0.00061945571889713
 199    -0.0097237282983827
 200    -0.0084863853819313
 201    -0.00014321233805966
 202    -0.00023383582320336
 203    -0.001165125896906
 204    0.0043018534914527
 205    -0.0013914780210136
 206    0.0001184653019138
 207    0.00076294131453012
 208    0.0011582305471738
 209    0.00031286505932191
 210    -0.0030516015039364
 211    3.9499675088223e-05
 212    0.00011912325000576
 213    0.00011263563905437
 214    -0.00022195778889675
 215    0.0020572653265116
 216    7.8130456004487e-06
 217    1.8537237805704e-05
 218    -0.00015959792576749
 219    0.00060842648259442
 220    0.00060153282842274
 221    -0.00016007633910173
 222    1.3744660041832e-05
 223    -0.00012773616010872
 224    -0.00034159445868553
 225    -0.0019197506594063
 226    -4.4446105573123e-06
 227    -2.08613261596e-05
 228    3.9699513106831e-05
