[Molden Format]
made by pyscf v[2.1.0]
[Atoms] (AU)
C   1   6     2.32946917320360    -0.63344186613258     2.37168943427863
C   2   6    -0.29669267073509     0.30039086476086     3.22269546913239
C   3   6    -2.28836574026819    -0.45088865332122     1.27613394164491
C   4   6    -1.50258360260379     0.48150977544368    -1.34195877174189
C   5   6     1.17077037184366    -0.47613539434541    -1.98531603085006
O   6   8     2.90615122545875     0.36947547242271    -0.06380660259594
O   7   8    -1.02480036707776    -0.78170410868758     5.58840958940515
O   8   8    -4.71990091118567     0.61286652808832     1.81907682367207
O   9   8    -3.21856263809797    -0.39246777018029    -3.24986406162526
C   10   6     2.14873576665020     0.54311106765225    -4.52137384344336
O   11   8     0.97527064535291    -0.64120108160005    -6.63217335814292
H   12   1     0.34900595904142    -0.48214283369541     6.76077111064570
H   13   1    -5.19719092819319     0.02690592056156     3.48444332437202
H   14   1    -0.83535721281623    -0.49952075513691    -6.37469817367093
H   15   1    -4.90002393620084     0.08874342853570    -2.71063260170675
O   16   8     4.22615893853768     0.10859122202201     4.07505454789134
H   17   1     4.38166639105427     1.93178575891951     3.94362220620171
H   18   1     2.36505838530753    -2.71537014510103     2.34202262384909
H   19   1    -0.22188597236806     2.38358526023277     3.34538215831753
H   20   1    -2.40897751016855    -2.53158672058258     1.22868291865708
H   21   1    -1.45404220764209     2.56502731408288    -1.31752650267738
H   22   1     1.14953551938192    -2.55944317338479    -2.06041941621865
H   23   1     1.89192576577406     2.61534694132780    -4.54974430175146
H   24   1     4.17463555575142     0.13656105839169    -4.65046670419078
[GTO]
1 0
 s    8 1.00
                  6665  0.00069158396281299
                  1000  0.0053257961529341
                   228   0.027060721042034
                 64.71    0.10165684614077
                 21.06     0.2745748236174
                 7.495    0.44829431892377
                 2.797    0.28490261071525
                0.5215   0.015194859206082
 s    8 1.00
                  6665  -0.00029326965268655
                  1000  -0.0023180354739745
                   228  -0.011499786038565
                 64.71  -0.046826727009787
                 21.06   -0.12846616875047
                 7.495   -0.30126627246289
                 2.797   -0.25563070233011
                0.5215      1.093793361012
 s    1 1.00
                0.1596                   1
 p    3 1.00
                 9.439   0.056979251590039
                 2.002    0.31320721150073
                0.5456    0.76037674173753
 p    1 1.00
                0.1517                   1
 d    1 1.00
                  0.55                   1

2 0
 s    8 1.00
                  6665  0.00069158396281299
                  1000  0.0053257961529341
                   228   0.027060721042034
                 64.71    0.10165684614077
                 21.06     0.2745748236174
                 7.495    0.44829431892377
                 2.797    0.28490261071525
                0.5215   0.015194859206082
 s    8 1.00
                  6665  -0.00029326965268655
                  1000  -0.0023180354739745
                   228  -0.011499786038565
                 64.71  -0.046826727009787
                 21.06   -0.12846616875047
                 7.495   -0.30126627246289
                 2.797   -0.25563070233011
                0.5215      1.093793361012
 s    1 1.00
                0.1596                   1
 p    3 1.00
                 9.439   0.056979251590039
                 2.002    0.31320721150073
                0.5456    0.76037674173753
 p    1 1.00
                0.1517                   1
 d    1 1.00
                  0.55                   1

3 0
 s    8 1.00
                  6665  0.00069158396281299
                  1000  0.0053257961529341
                   228   0.027060721042034
                 64.71    0.10165684614077
                 21.06     0.2745748236174
                 7.495    0.44829431892377
                 2.797    0.28490261071525
                0.5215   0.015194859206082
 s    8 1.00
                  6665  -0.00029326965268655
                  1000  -0.0023180354739745
                   228  -0.011499786038565
                 64.71  -0.046826727009787
                 21.06   -0.12846616875047
                 7.495   -0.30126627246289
                 2.797   -0.25563070233011
                0.5215      1.093793361012
 s    1 1.00
                0.1596                   1
 p    3 1.00
                 9.439   0.056979251590039
                 2.002    0.31320721150073
                0.5456    0.76037674173753
 p    1 1.00
                0.1517                   1
 d    1 1.00
                  0.55                   1

4 0
 s    8 1.00
                  6665  0.00069158396281299
                  1000  0.0053257961529341
                   228   0.027060721042034
                 64.71    0.10165684614077
                 21.06     0.2745748236174
                 7.495    0.44829431892377
                 2.797    0.28490261071525
                0.5215   0.015194859206082
 s    8 1.00
                  6665  -0.00029326965268655
                  1000  -0.0023180354739745
                   228  -0.011499786038565
                 64.71  -0.046826727009787
                 21.06   -0.12846616875047
                 7.495   -0.30126627246289
                 2.797   -0.25563070233011
                0.5215      1.093793361012
 s    1 1.00
                0.1596                   1
 p    3 1.00
                 9.439   0.056979251590039
                 2.002    0.31320721150073
                0.5456    0.76037674173753
 p    1 1.00
                0.1517                   1
 d    1 1.00
                  0.55                   1

5 0
 s    8 1.00
                  6665  0.00069158396281299
                  1000  0.0053257961529341
                   228   0.027060721042034
                 64.71    0.10165684614077
                 21.06     0.2745748236174
                 7.495    0.44829431892377
                 2.797    0.28490261071525
                0.5215   0.015194859206082
 s    8 1.00
                  6665  -0.00029326965268655
                  1000  -0.0023180354739745
                   228  -0.011499786038565
                 64.71  -0.046826727009787
                 21.06   -0.12846616875047
                 7.495   -0.30126627246289
                 2.797   -0.25563070233011
                0.5215      1.093793361012
 s    1 1.00
                0.1596                   1
 p    3 1.00
                 9.439   0.056979251590039
                 2.002    0.31320721150073
                0.5456    0.76037674173753
 p    1 1.00
                0.1517                   1
 d    1 1.00
                  0.55                   1

6 0
 s    8 1.00
                 11720  0.00070964594651845
                  1759  0.0054672722921914
                 400.8   0.027823118610189
                 113.7    0.10474773971146
                 37.03    0.28292084635691
                 13.27    0.44849523869833
                 5.025    0.27081688521277
                 1.013    0.01545029160744
 s    8 1.00
                 11720  -0.00031444341168873
                  1759  -0.0024821376810179
                 400.8  -0.012316355381583
                 113.7  -0.050538917343672
                 37.03   -0.13938490331632
                 13.27   -0.32507749481778
                 5.025   -0.22984830758785
                 1.013     1.0953793467883
 s    1 1.00
                0.3023                   1
 p    3 1.00
                  17.7   0.062679166281506
                 3.854    0.33353656587936
                 1.046    0.74123964163973
 p    1 1.00
                0.2753                   1
 d    1 1.00
                 1.185                   1

7 0
 s    8 1.00
                 11720  0.00070964594651845
                  1759  0.0054672722921914
                 400.8   0.027823118610189
                 113.7    0.10474773971146
                 37.03    0.28292084635691
                 13.27    0.44849523869833
                 5.025    0.27081688521277
                 1.013    0.01545029160744
 s    8 1.00
                 11720  -0.00031444341168873
                  1759  -0.0024821376810179
                 400.8  -0.012316355381583
                 113.7  -0.050538917343672
                 37.03   -0.13938490331632
                 13.27   -0.32507749481778
                 5.025   -0.22984830758785
                 1.013     1.0953793467883
 s    1 1.00
                0.3023                   1
 p    3 1.00
                  17.7   0.062679166281506
                 3.854    0.33353656587936
                 1.046    0.74123964163973
 p    1 1.00
                0.2753                   1
 d    1 1.00
                 1.185                   1

8 0
 s    8 1.00
                 11720  0.00070964594651845
                  1759  0.0054672722921914
                 400.8   0.027823118610189
                 113.7    0.10474773971146
                 37.03    0.28292084635691
                 13.27    0.44849523869833
                 5.025    0.27081688521277
                 1.013    0.01545029160744
 s    8 1.00
                 11720  -0.00031444341168873
                  1759  -0.0024821376810179
                 400.8  -0.012316355381583
                 113.7  -0.050538917343672
                 37.03   -0.13938490331632
                 13.27   -0.32507749481778
                 5.025   -0.22984830758785
                 1.013     1.0953793467883
 s    1 1.00
                0.3023                   1
 p    3 1.00
                  17.7   0.062679166281506
                 3.854    0.33353656587936
                 1.046    0.74123964163973
 p    1 1.00
                0.2753                   1
 d    1 1.00
                 1.185                   1

9 0
 s    8 1.00
                 11720  0.00070964594651845
                  1759  0.0054672722921914
                 400.8   0.027823118610189
                 113.7    0.10474773971146
                 37.03    0.28292084635691
                 13.27    0.44849523869833
                 5.025    0.27081688521277
                 1.013    0.01545029160744
 s    8 1.00
                 11720  -0.00031444341168873
                  1759  -0.0024821376810179
                 400.8  -0.012316355381583
                 113.7  -0.050538917343672
                 37.03   -0.13938490331632
                 13.27   -0.32507749481778
                 5.025   -0.22984830758785
                 1.013     1.0953793467883
 s    1 1.00
                0.3023                   1
 p    3 1.00
                  17.7   0.062679166281506
                 3.854    0.33353656587936
                 1.046    0.74123964163973
 p    1 1.00
                0.2753                   1
 d    1 1.00
                 1.185                   1

10 0
 s    8 1.00
                  6665  0.00069158396281299
                  1000  0.0053257961529341
                   228   0.027060721042034
                 64.71    0.10165684614077
                 21.06     0.2745748236174
                 7.495    0.44829431892377
                 2.797    0.28490261071525
                0.5215   0.015194859206082
 s    8 1.00
                  6665  -0.00029326965268655
                  1000  -0.0023180354739745
                   228  -0.011499786038565
                 64.71  -0.046826727009787
                 21.06   -0.12846616875047
                 7.495   -0.30126627246289
                 2.797   -0.25563070233011
                0.5215      1.093793361012
 s    1 1.00
                0.1596                   1
 p    3 1.00
                 9.439   0.056979251590039
                 2.002    0.31320721150073
                0.5456    0.76037674173753
 p    1 1.00
                0.1517                   1
 d    1 1.00
                  0.55                   1

11 0
 s    8 1.00
                 11720  0.00070964594651845
                  1759  0.0054672722921914
                 400.8   0.027823118610189
                 113.7    0.10474773971146
                 37.03    0.28292084635691
                 13.27    0.44849523869833
                 5.025    0.27081688521277
                 1.013    0.01545029160744
 s    8 1.00
                 11720  -0.00031444341168873
                  1759  -0.0024821376810179
                 400.8  -0.012316355381583
                 113.7  -0.050538917343672
                 37.03   -0.13938490331632
                 13.27   -0.32507749481778
                 5.025   -0.22984830758785
                 1.013     1.0953793467883
 s    1 1.00
                0.3023                   1
 p    3 1.00
                  17.7   0.062679166281506
                 3.854    0.33353656587936
                 1.046    0.74123964163973
 p    1 1.00
                0.2753                   1
 d    1 1.00
                 1.185                   1

12 0
 s    3 1.00
                 13.01   0.033498726389998
                 1.962    0.23480080117413
                0.4446     0.8136829578829
 s    1 1.00
                 0.122                   1
 p    1 1.00
                 0.727                   1

13 0
 s    3 1.00
                 13.01   0.033498726389998
                 1.962    0.23480080117413
                0.4446     0.8136829578829
 s    1 1.00
                 0.122                   1
 p    1 1.00
                 0.727                   1

14 0
 s    3 1.00
                 13.01   0.033498726389998
                 1.962    0.23480080117413
                0.4446     0.8136829578829
 s    1 1.00
                 0.122                   1
 p    1 1.00
                 0.727                   1

15 0
 s    3 1.00
                 13.01   0.033498726389998
                 1.962    0.23480080117413
                0.4446     0.8136829578829
 s    1 1.00
                 0.122                   1
 p    1 1.00
                 0.727                   1

16 0
 s    8 1.00
                 11720  0.00070964594651845
                  1759  0.0054672722921914
                 400.8   0.027823118610189
                 113.7    0.10474773971146
                 37.03    0.28292084635691
                 13.27    0.44849523869833
                 5.025    0.27081688521277
                 1.013    0.01545029160744
 s    8 1.00
                 11720  -0.00031444341168873
                  1759  -0.0024821376810179
                 400.8  -0.012316355381583
                 113.7  -0.050538917343672
                 37.03   -0.13938490331632
                 13.27   -0.32507749481778
                 5.025   -0.22984830758785
                 1.013     1.0953793467883
 s    1 1.00
                0.3023                   1
 p    3 1.00
                  17.7   0.062679166281506
                 3.854    0.33353656587936
                 1.046    0.74123964163973
 p    1 1.00
                0.2753                   1
 d    1 1.00
                 1.185                   1

17 0
 s    3 1.00
                 13.01   0.033498726389998
                 1.962    0.23480080117413
                0.4446     0.8136829578829
 s    1 1.00
                 0.122                   1
 p    1 1.00
                 0.727                   1

18 0
 s    3 1.00
                 13.01   0.033498726389998
                 1.962    0.23480080117413
                0.4446     0.8136829578829
 s    1 1.00
                 0.122                   1
 p    1 1.00
                 0.727                   1

19 0
 s    3 1.00
                 13.01   0.033498726389998
                 1.962    0.23480080117413
                0.4446     0.8136829578829
 s    1 1.00
                 0.122                   1
 p    1 1.00
                 0.727                   1

20 0
 s    3 1.00
                 13.01   0.033498726389998
                 1.962    0.23480080117413
                0.4446     0.8136829578829
 s    1 1.00
                 0.122                   1
 p    1 1.00
                 0.727                   1

21 0
 s    3 1.00
                 13.01   0.033498726389998
                 1.962    0.23480080117413
                0.4446     0.8136829578829
 s    1 1.00
                 0.122                   1
 p    1 1.00
                 0.727                   1

22 0
 s    3 1.00
                 13.01   0.033498726389998
                 1.962    0.23480080117413
                0.4446     0.8136829578829
 s    1 1.00
                 0.122                   1
 p    1 1.00
                 0.727                   1

23 0
 s    3 1.00
                 13.01   0.033498726389998
                 1.962    0.23480080117413
                0.4446     0.8136829578829
 s    1 1.00
                 0.122                   1
 p    1 1.00
                 0.727                   1

24 0
 s    3 1.00
                 13.01   0.033498726389998
                 1.962    0.23480080117413
                0.4446     0.8136829578829
 s    1 1.00
                 0.122                   1
 p    1 1.00
                 0.727                   1

[5d]
[7f]
[9g]

[MO]
 Sym= A
 Ene=     -20.5892274
 Spin= Alpha
 Occup=    2.00000
   1    -0.00012453641457055
   2    0.0018211879844309
   3    -0.0033024382696246
   4    -0.0078128778300761
   5    0.0031836348273877
   6    0.00023916993177251
   7    -0.00094245336783247
   8    -0.0031931063645183
   9    -0.00045742911579004
  10    -0.00025044844881183
  11    0.00022728736706002
  12    1.3990550864658e-05
  13    0.0011057831332411
  14    0.00068904921561669
  15    -0.00063244503666244
  16     0.019248637923057
  17     0.073796139568069
  18     -0.02353338188369
  19    -0.014552072768942
  20    -0.0087793972363945
  21     -0.02695559084177
  22    -0.012788971561905
  23    -0.044181715211164
  24    -0.013695565713734
  25    -0.0026518577125359
  26    0.0040497853532312
  27    0.00085059570835181
  28    0.0051084495906713
  29    0.0068398531248547
  30     -0.20560233124015
  31     -0.15311219039324
  32    -0.088841835500705
  33     -0.13114469709749
  34       0.3461019266299
  35    -0.081658106884608
  36    -0.071325158451246
  37      0.13239601655313
  38    -0.024735569566043
  39     0.012755338834479
  40     0.018811251378043
  41    -3.1592485920051e-05
  42    -0.0071055821222315
  43    0.0097500484220587
  44     -0.20322043438693
  45     -0.18859884668141
  46      0.11984050919758
  47      0.13183323340251
  48     -0.32969833570201
  49     0.040159187890801
  50     0.083133713346058
  51     -0.14374323981405
  52    -0.025582353880023
  53       0.0143293226086
  54     0.018508885837113
  55    -0.0023265684738568
  56    -0.004990027778519
  57    -0.0014645361697175
  58     0.011300450764638
  59     0.060041492618871
  60    -0.028841283283061
  61     0.010415088617059
  62    0.0019535447249934
  63    -0.051650333076903
  64    0.0080797754358107
  65     0.023092697420909
  66    -0.0047277887012921
  67     0.011068023846268
  68    -0.00015489851152349
  69    -0.0044913214510384
  70    -0.0052796614869266
  71    -0.00014686390467841
  72    0.0011028688333645
  73    0.0020805369310644
  74    -0.0045334802525559
  75    -0.0040421658932248
  76    -0.0010416604548353
  77    0.00078183679802798
  78    -0.0036718005888582
  79    -0.00092350631081557
  80    -0.00040999341193512
  81    0.00017908780280195
  82    -0.00026608479565686
  83    0.00021688468099346
  84    -2.0953048866219e-06
  85    0.00031466267213683
  86    -0.0059578782402998
  87    -0.024537674213225
  88    -0.0057562957182838
  89    -0.0058250105271758
  90     0.016688818843172
  91    0.0032376203364537
  92    -0.00010486249140922
  93     0.021939402349083
  94    0.0010931209746601
  95    0.0011627069873847
  96    0.00011228417233589
  97    0.00017813955661086
  98    0.00010312096677025
  99    0.00041382138096447
 100    0.0074714343839356
 101     0.027453854634902
 102     0.018860273932348
 103    -0.0072381059701258
 104    -0.0056360003232291
 105     0.014081436798415
 106    0.0096784071313743
 107    -0.020220794538031
 108    -0.002108128434325
 109    0.0073765070947313
 110    -0.0011831912747115
 111    -0.0029085762684663
 112    -0.0011258503365039
 113    0.0012745299348459
 114    0.0092427254937626
 115     0.011356048884723
 116    0.0080298760859683
 117    0.0041898337532843
 118     0.021834698502885
 119    0.0099648182048851
 120    -0.014247890711182
 121      0.04264907000232
 122    -0.0060091070850166
 123    -0.0022138660201621
 124    -6.2468127789521e-05
 125    0.00067187706758434
 126    0.0018312954396355
 127    0.00014801997281041
 128    -0.010055110133911
 129    -0.018830959853056
 130     0.006923803979549
 131    0.0053165118061545
 132    -0.017163170684206
 133     0.021586103089956
 134    -0.00032954440489659
 135    -0.013285694210197
 136    -0.00029173281586019
 137    -0.00035852624718023
 138    -0.00013380179111117
 139    0.00078672681949427
 140    -0.00094654968051983
 141    -0.00078304338230665
 142    -0.00059362563267316
 143     0.010527975418063
 144    -0.001469450964264
 145    -4.9888022591568e-05
 146    0.0022731873073426
 147    -0.0065011507333939
 148    0.00077699395122679
 149     0.001954506648267
 150    -0.00038864458852698
 151    -0.00023091754788612
 152    4.9705102590676e-05
 153    0.0002400368044861
 154    3.5679687335666e-05
 155    0.0078202392601069
 156     0.011524175195303
 157    -0.00018730204813325
 158    -0.00030250677208768
 159    0.0011604790013467
 160    -0.023097929361516
 161    -0.035028828753211
 162    0.0030746308408993
 163    -0.0014062640522418
 164    -0.0011674641062951
 165    -0.00016022463719916
 166      -0.0160664673029
 167    -0.00024944034955307
 168    -0.0001148291616298
 169    -0.0005599389115834
 170      0.01562052733339
 171     0.015019029032585
 172    0.0010889344572538
 173    -0.00047210262175504
 174    0.0016117894087705
 175    -0.00041691626752389
 176    -0.0012147032287091
 177    0.0040315588953866
 178    0.0011455447462882
 179    0.00018462603989907
 180    0.00030437930633694
 181    -0.0015041181600424
 182    0.00099178531188286
 183    -0.00019439477107496
 184    -0.00013808465033806
 185    -9.6218240325126e-05
 186    -0.00013495970108374
 187    5.4726797766487e-05
 188    -0.00010895182198845
 189    -0.0010091963470023
 190    0.00047235920438038
 191    -9.4471870379709e-05
 192    0.0001736630170542
 193    -0.00021860360807511
 194    -0.0031246789762831
 195    -0.0058103625657466
 196    -0.00018098842320943
 197    9.1803166377523e-05
 198    -2.0714588507206e-05
 199    0.0051880680540082
 200     0.013757078681333
 201    -0.0013142703233052
 202    -0.00017562135489712
 203    -0.00097494150947399
 204     0.019788730430891
 205     0.040980616444641
 206    0.0010163422131906
 207    -0.0052832136913305
 208    0.0066155238110615
 209     0.024980269965251
 210     0.043125898240492
 211    0.0037205359275794
 212    0.0052580344773475
 213    -0.0051022360286776
 214    0.0071714154554262
 215     0.019019677781417
 216    -0.0019451335975886
 217    0.00074723181986431
 218    0.0008508220066959
 219    -0.0013710605809854
 220    -0.0030733699178201
 221    -2.7052546065475e-05
 222    0.00082645976080359
 223    -0.00067186612180307
 224    0.0058003281618954
 225     0.007210989973747
 226    2.0862911831001e-06
 227    0.00034883799076273
 228    -0.00042787657189876
