[Molden Format]
made by pyscf v[2.1.0]
[Atoms] (AU)
C   1   6     2.32946917320360    -0.63344186613258     2.37168943427863
C   2   6    -0.29669267073509     0.30039086476086     3.22269546913239
C   3   6    -2.28836574026819    -0.45088865332122     1.27613394164491
C   4   6    -1.50258360260379     0.48150977544368    -1.34195877174189
C   5   6     1.17077037184366    -0.47613539434541    -1.98531603085006
O   6   8     2.90615122545875     0.36947547242271    -0.06380660259594
O   7   8    -1.02480036707776    -0.78170410868758     5.58840958940515
O   8   8    -4.71990091118567     0.61286652808832     1.81907682367207
O   9   8    -3.21856263809797    -0.39246777018029    -3.24986406162526
C   10   6     2.14873576665020     0.54311106765225    -4.52137384344336
O   11   8     0.97527064535291    -0.64120108160005    -6.63217335814292
H   12   1     0.34900595904142    -0.48214283369541     6.76077111064570
H   13   1    -5.19719092819319     0.02690592056156     3.48444332437202
H   14   1    -0.83535721281623    -0.49952075513691    -6.37469817367093
H   15   1    -4.90002393620084     0.08874342853570    -2.71063260170675
O   16   8     4.22615893853768     0.10859122202201     4.07505454789134
H   17   1     4.38166639105427     1.93178575891951     3.94362220620171
H   18   1     2.36505838530753    -2.71537014510103     2.34202262384909
H   19   1    -0.22188597236806     2.38358526023277     3.34538215831753
H   20   1    -2.40897751016855    -2.53158672058258     1.22868291865708
H   21   1    -1.45404220764209     2.56502731408288    -1.31752650267738
H   22   1     1.14953551938192    -2.55944317338479    -2.06041941621865
H   23   1     1.89192576577406     2.61534694132780    -4.54974430175146
H   24   1     4.17463555575142     0.13656105839169    -4.65046670419078
[GTO]
1 0
 s    8 1.00
                  6665  0.00069158396281299
                  1000  0.0053257961529341
                   228   0.027060721042034
                 64.71    0.10165684614077
                 21.06     0.2745748236174
                 7.495    0.44829431892377
                 2.797    0.28490261071525
                0.5215   0.015194859206082
 s    8 1.00
                  6665  -0.00029326965268655
                  1000  -0.0023180354739745
                   228  -0.011499786038565
                 64.71  -0.046826727009787
                 21.06   -0.12846616875047
                 7.495   -0.30126627246289
                 2.797   -0.25563070233011
                0.5215      1.093793361012
 s    1 1.00
                0.1596                   1
 p    3 1.00
                 9.439   0.056979251590039
                 2.002    0.31320721150073
                0.5456    0.76037674173753
 p    1 1.00
                0.1517                   1
 d    1 1.00
                  0.55                   1

2 0
 s    8 1.00
                  6665  0.00069158396281299
                  1000  0.0053257961529341
                   228   0.027060721042034
                 64.71    0.10165684614077
                 21.06     0.2745748236174
                 7.495    0.44829431892377
                 2.797    0.28490261071525
                0.5215   0.015194859206082
 s    8 1.00
                  6665  -0.00029326965268655
                  1000  -0.0023180354739745
                   228  -0.011499786038565
                 64.71  -0.046826727009787
                 21.06   -0.12846616875047
                 7.495   -0.30126627246289
                 2.797   -0.25563070233011
                0.5215      1.093793361012
 s    1 1.00
                0.1596                   1
 p    3 1.00
                 9.439   0.056979251590039
                 2.002    0.31320721150073
                0.5456    0.76037674173753
 p    1 1.00
                0.1517                   1
 d    1 1.00
                  0.55                   1

3 0
 s    8 1.00
                  6665  0.00069158396281299
                  1000  0.0053257961529341
                   228   0.027060721042034
                 64.71    0.10165684614077
                 21.06     0.2745748236174
                 7.495    0.44829431892377
                 2.797    0.28490261071525
                0.5215   0.015194859206082
 s    8 1.00
                  6665  -0.00029326965268655
                  1000  -0.0023180354739745
                   228  -0.011499786038565
                 64.71  -0.046826727009787
                 21.06   -0.12846616875047
                 7.495   -0.30126627246289
                 2.797   -0.25563070233011
                0.5215      1.093793361012
 s    1 1.00
                0.1596                   1
 p    3 1.00
                 9.439   0.056979251590039
                 2.002    0.31320721150073
                0.5456    0.76037674173753
 p    1 1.00
                0.1517                   1
 d    1 1.00
                  0.55                   1

4 0
 s    8 1.00
                  6665  0.00069158396281299
                  1000  0.0053257961529341
                   228   0.027060721042034
                 64.71    0.10165684614077
                 21.06     0.2745748236174
                 7.495    0.44829431892377
                 2.797    0.28490261071525
                0.5215   0.015194859206082
 s    8 1.00
                  6665  -0.00029326965268655
                  1000  -0.0023180354739745
                   228  -0.011499786038565
                 64.71  -0.046826727009787
                 21.06   -0.12846616875047
                 7.495   -0.30126627246289
                 2.797   -0.25563070233011
                0.5215      1.093793361012
 s    1 1.00
                0.1596                   1
 p    3 1.00
                 9.439   0.056979251590039
                 2.002    0.31320721150073
                0.5456    0.76037674173753
 p    1 1.00
                0.1517                   1
 d    1 1.00
                  0.55                   1

5 0
 s    8 1.00
                  6665  0.00069158396281299
                  1000  0.0053257961529341
                   228   0.027060721042034
                 64.71    0.10165684614077
                 21.06     0.2745748236174
                 7.495    0.44829431892377
                 2.797    0.28490261071525
                0.5215   0.015194859206082
 s    8 1.00
                  6665  -0.00029326965268655
                  1000  -0.0023180354739745
                   228  -0.011499786038565
                 64.71  -0.046826727009787
                 21.06   -0.12846616875047
                 7.495   -0.30126627246289
                 2.797   -0.25563070233011
                0.5215      1.093793361012
 s    1 1.00
                0.1596                   1
 p    3 1.00
                 9.439   0.056979251590039
                 2.002    0.31320721150073
                0.5456    0.76037674173753
 p    1 1.00
                0.1517                   1
 d    1 1.00
                  0.55                   1

6 0
 s    8 1.00
                 11720  0.00070964594651845
                  1759  0.0054672722921914
                 400.8   0.027823118610189
                 113.7    0.10474773971146
                 37.03    0.28292084635691
                 13.27    0.44849523869833
                 5.025    0.27081688521277
                 1.013    0.01545029160744
 s    8 1.00
                 11720  -0.00031444341168873
                  1759  -0.0024821376810179
                 400.8  -0.012316355381583
                 113.7  -0.050538917343672
                 37.03   -0.13938490331632
                 13.27   -0.32507749481778
                 5.025   -0.22984830758785
                 1.013     1.0953793467883
 s    1 1.00
                0.3023                   1
 p    3 1.00
                  17.7   0.062679166281506
                 3.854    0.33353656587936
                 1.046    0.74123964163973
 p    1 1.00
                0.2753                   1
 d    1 1.00
                 1.185                   1

7 0
 s    8 1.00
                 11720  0.00070964594651845
                  1759  0.0054672722921914
                 400.8   0.027823118610189
                 113.7    0.10474773971146
                 37.03    0.28292084635691
                 13.27    0.44849523869833
                 5.025    0.27081688521277
                 1.013    0.01545029160744
 s    8 1.00
                 11720  -0.00031444341168873
                  1759  -0.0024821376810179
                 400.8  -0.012316355381583
                 113.7  -0.050538917343672
                 37.03   -0.13938490331632
                 13.27   -0.32507749481778
                 5.025   -0.22984830758785
                 1.013     1.0953793467883
 s    1 1.00
                0.3023                   1
 p    3 1.00
                  17.7   0.062679166281506
                 3.854    0.33353656587936
                 1.046    0.74123964163973
 p    1 1.00
                0.2753                   1
 d    1 1.00
                 1.185                   1

8 0
 s    8 1.00
                 11720  0.00070964594651845
                  1759  0.0054672722921914
                 400.8   0.027823118610189
                 113.7    0.10474773971146
                 37.03    0.28292084635691
                 13.27    0.44849523869833
                 5.025    0.27081688521277
                 1.013    0.01545029160744
 s    8 1.00
                 11720  -0.00031444341168873
                  1759  -0.0024821376810179
                 400.8  -0.012316355381583
                 113.7  -0.050538917343672
                 37.03   -0.13938490331632
                 13.27   -0.32507749481778
                 5.025   -0.22984830758785
                 1.013     1.0953793467883
 s    1 1.00
                0.3023                   1
 p    3 1.00
                  17.7   0.062679166281506
                 3.854    0.33353656587936
                 1.046    0.74123964163973
 p    1 1.00
                0.2753                   1
 d    1 1.00
                 1.185                   1

9 0
 s    8 1.00
                 11720  0.00070964594651845
                  1759  0.0054672722921914
                 400.8   0.027823118610189
                 113.7    0.10474773971146
                 37.03    0.28292084635691
                 13.27    0.44849523869833
                 5.025    0.27081688521277
                 1.013    0.01545029160744
 s    8 1.00
                 11720  -0.00031444341168873
                  1759  -0.0024821376810179
                 400.8  -0.012316355381583
                 113.7  -0.050538917343672
                 37.03   -0.13938490331632
                 13.27   -0.32507749481778
                 5.025   -0.22984830758785
                 1.013     1.0953793467883
 s    1 1.00
                0.3023                   1
 p    3 1.00
                  17.7   0.062679166281506
                 3.854    0.33353656587936
                 1.046    0.74123964163973
 p    1 1.00
                0.2753                   1
 d    1 1.00
                 1.185                   1

10 0
 s    8 1.00
                  6665  0.00069158396281299
                  1000  0.0053257961529341
                   228   0.027060721042034
                 64.71    0.10165684614077
                 21.06     0.2745748236174
                 7.495    0.44829431892377
                 2.797    0.28490261071525
                0.5215   0.015194859206082
 s    8 1.00
                  6665  -0.00029326965268655
                  1000  -0.0023180354739745
                   228  -0.011499786038565
                 64.71  -0.046826727009787
                 21.06   -0.12846616875047
                 7.495   -0.30126627246289
                 2.797   -0.25563070233011
                0.5215      1.093793361012
 s    1 1.00
                0.1596                   1
 p    3 1.00
                 9.439   0.056979251590039
                 2.002    0.31320721150073
                0.5456    0.76037674173753
 p    1 1.00
                0.1517                   1
 d    1 1.00
                  0.55                   1

11 0
 s    8 1.00
                 11720  0.00070964594651845
                  1759  0.0054672722921914
                 400.8   0.027823118610189
                 113.7    0.10474773971146
                 37.03    0.28292084635691
                 13.27    0.44849523869833
                 5.025    0.27081688521277
                 1.013    0.01545029160744
 s    8 1.00
                 11720  -0.00031444341168873
                  1759  -0.0024821376810179
                 400.8  -0.012316355381583
                 113.7  -0.050538917343672
                 37.03   -0.13938490331632
                 13.27   -0.32507749481778
                 5.025   -0.22984830758785
                 1.013     1.0953793467883
 s    1 1.00
                0.3023                   1
 p    3 1.00
                  17.7   0.062679166281506
                 3.854    0.33353656587936
                 1.046    0.74123964163973
 p    1 1.00
                0.2753                   1
 d    1 1.00
                 1.185                   1

12 0
 s    3 1.00
                 13.01   0.033498726389998
                 1.962    0.23480080117413
                0.4446     0.8136829578829
 s    1 1.00
                 0.122                   1
 p    1 1.00
                 0.727                   1

13 0
 s    3 1.00
                 13.01   0.033498726389998
                 1.962    0.23480080117413
                0.4446     0.8136829578829
 s    1 1.00
                 0.122                   1
 p    1 1.00
                 0.727                   1

14 0
 s    3 1.00
                 13.01   0.033498726389998
                 1.962    0.23480080117413
                0.4446     0.8136829578829
 s    1 1.00
                 0.122                   1
 p    1 1.00
                 0.727                   1

15 0
 s    3 1.00
                 13.01   0.033498726389998
                 1.962    0.23480080117413
                0.4446     0.8136829578829
 s    1 1.00
                 0.122                   1
 p    1 1.00
                 0.727                   1

16 0
 s    8 1.00
                 11720  0.00070964594651845
                  1759  0.0054672722921914
                 400.8   0.027823118610189
                 113.7    0.10474773971146
                 37.03    0.28292084635691
                 13.27    0.44849523869833
                 5.025    0.27081688521277
                 1.013    0.01545029160744
 s    8 1.00
                 11720  -0.00031444341168873
                  1759  -0.0024821376810179
                 400.8  -0.012316355381583
                 113.7  -0.050538917343672
                 37.03   -0.13938490331632
                 13.27   -0.32507749481778
                 5.025   -0.22984830758785
                 1.013     1.0953793467883
 s    1 1.00
                0.3023                   1
 p    3 1.00
                  17.7   0.062679166281506
                 3.854    0.33353656587936
                 1.046    0.74123964163973
 p    1 1.00
                0.2753                   1
 d    1 1.00
                 1.185                   1

17 0
 s    3 1.00
                 13.01   0.033498726389998
                 1.962    0.23480080117413
                0.4446     0.8136829578829
 s    1 1.00
                 0.122                   1
 p    1 1.00
                 0.727                   1

18 0
 s    3 1.00
                 13.01   0.033498726389998
                 1.962    0.23480080117413
                0.4446     0.8136829578829
 s    1 1.00
                 0.122                   1
 p    1 1.00
                 0.727                   1

19 0
 s    3 1.00
                 13.01   0.033498726389998
                 1.962    0.23480080117413
                0.4446     0.8136829578829
 s    1 1.00
                 0.122                   1
 p    1 1.00
                 0.727                   1

20 0
 s    3 1.00
                 13.01   0.033498726389998
                 1.962    0.23480080117413
                0.4446     0.8136829578829
 s    1 1.00
                 0.122                   1
 p    1 1.00
                 0.727                   1

21 0
 s    3 1.00
                 13.01   0.033498726389998
                 1.962    0.23480080117413
                0.4446     0.8136829578829
 s    1 1.00
                 0.122                   1
 p    1 1.00
                 0.727                   1

22 0
 s    3 1.00
                 13.01   0.033498726389998
                 1.962    0.23480080117413
                0.4446     0.8136829578829
 s    1 1.00
                 0.122                   1
 p    1 1.00
                 0.727                   1

23 0
 s    3 1.00
                 13.01   0.033498726389998
                 1.962    0.23480080117413
                0.4446     0.8136829578829
 s    1 1.00
                 0.122                   1
 p    1 1.00
                 0.727                   1

24 0
 s    3 1.00
                 13.01   0.033498726389998
                 1.962    0.23480080117413
                0.4446     0.8136829578829
 s    1 1.00
                 0.122                   1
 p    1 1.00
                 0.727                   1

[5d]
[7f]
[9g]

[MO]
 Sym= A
 Ene=     -20.5892274
 Spin= Alpha
 Occup=    2.00000
   1    -0.0034423858494409
   2    -0.0067818767578097
   3      0.01239643340017
   4    -0.0053532481899365
   5    0.0058090046113849
   6    0.0042145632451848
   7    -0.024781254019485
   8       0.0144847516077
   9     0.022583729844606
  10    -0.011171334225675
  11     0.020377163263581
  12    -0.022408088118595
  13    -0.018639514134637
  14    -0.00011018719604536
  15    -0.00084285648172964
  16    -0.031472549928177
  17    -0.070593253589319
  18    -0.040905263880522
  19    0.0064049614273674
  20      0.01020805211412
  21    -0.055728640239878
  22     0.013347453692704
  23    -0.033099994728874
  24    0.0014519319546592
  25    0.0014575589580958
  26    -0.0023754749059645
  27    -0.00058418393375024
  28    -0.00064471675924003
  29    0.0038971667615839
  30    0.0035782727952049
  31     -0.06526866757635
  32    -0.0073599479085915
  33    0.0018389107207821
  34     0.001977493989172
  35    -0.013761047445625
  36    -0.024606030641501
  37    0.0025325862617866
  38    0.00089895651536392
  39    0.0008134669224018
  40    -0.00016178086246925
  41    -0.002386603971202
  42    3.1054114312943e-05
  43    -0.0020420786836439
  44    -0.031932183626821
  45    -0.051671266370124
  46    -0.038455147401723
  47    0.0058462071909385
  48     0.011677248378068
  49    -0.032420840970581
  50    0.0061139638775039
  51     0.047239764886964
  52    0.0017712930413544
  53    0.0014576369386615
  54    0.0022852278231559
  55    -1.2082308916937e-05
  56    0.00077272430229757
  57    -0.0023445024168557
  58    -0.0043719638857704
  59     0.016199487544997
  60    -0.0051892102349964
  61      0.00523713827122
  62    -0.0010053912601821
  63    -0.023851029307461
  64     0.017043040316859
  65    -0.014319798062224
  66    0.0068803153251134
  67    -0.0088693152132349
  68     0.019135299198356
  69    -0.023412437632941
  70     0.011690088740795
  71    -0.0033371365457274
  72    0.0011572241601415
  73     0.027489048078204
  74     -0.36711762482239
  75      0.50453654430846
  76      0.11769692113282
  77     -0.28171659976319
  78      0.38383220404122
  79     0.093374335232413
  80    0.00043925852003139
  81    -0.0047217530911617
  82    0.0012978044098226
  83     0.015329824857724
  84    -0.0054404327739814
  85    -0.0015516179601963
  86    0.0022420114709167
  87     0.026069151459305
  88    0.0076221365016282
  89    0.0062971723063312
  90    -0.011850243015861
  91     0.013289434444361
  92    0.0091910173069509
  93    -0.018111804269832
  94    0.00010563823007054
  95    0.00081766093471534
  96    -0.00046657925096892
  97    -0.00033444383218976
  98    -4.5967128820971e-05
  99    -0.00072040106845163
 100    -0.0025075263812579
 101    0.0038992166838989
 102    -0.0026165334537526
 103    -0.00016276854909317
 104    -6.5463752753469e-05
 105    0.00010436723035531
 106    -0.00091532911672208
 107    0.00022415798823219
 108    -1.6801152194202e-06
 109    -0.00021435768541989
 110    -8.4268905038356e-05
 111    0.00024798428605653
 112    -5.132992308691e-05
 113    -0.0012900396825135
 114    0.0034546607211881
 115     0.026751040757313
 116    0.0097513404801901
 117    0.0056789163466629
 118    0.0072700353569673
 119     0.011739416238051
 120    0.0085225182966913
 121    0.0082655213892422
 122    0.00084922628727299
 123    -0.0002667398749029
 124    0.00053005152606499
 125    -0.0010527323226345
 126    -0.00011237168947796
 127    -0.00029781637299546
 128    0.0018756171245825
 129    -0.002618816989322
 130    0.0071453216985249
 131    -0.0089047496060821
 132    0.0020211189318549
 133     0.023874615649466
 134    -0.013016956660077
 135    4.2016717157975e-05
 136    1.8125561605847e-05
 137    0.00013799860398766
 138    -4.9533072412409e-05
 139    0.00015211616134288
 140    -6.0038405568471e-05
 141    -0.00018868746006955
 142    -0.0014448912405621
 143    -0.002059059906079
 144    -0.0013712801126214
 145    0.0029657126792418
 146    -0.0020997296986441
 147    -0.00071430994716397
 148     0.004869274086509
 149    -0.00053266746147202
 150    9.9659804565053e-05
 151    0.00024820937769815
 152    -0.00026085847017498
 153    0.00010027375683863
 154    -4.7939040415603e-05
 155    0.0019166211017019
 156    0.0040301072249538
 157    0.00072518072935414
 158    0.0003357361893086
 159    -5.1862474002345e-05
 160    0.00034705083032323
 161    -0.0019654834775191
 162    -0.00063122997883239
 163    8.2266253887609e-05
 164    0.00041905801574955
 165    0.00092609865930874
 166    0.0069142728464412
 167    4.1461290684624e-05
 168    0.00030606740285202
 169    9.8929549026499e-05
 170    -0.0074416964481552
 171    -0.0072616916174001
 172    -0.00018758675139314
 173    0.00063419411090347
 174    0.00083272576321128
 175    0.0010311057124598
 176      0.00129692469107
 177    -0.010951108094291
 178    0.0018154794714066
 179    -0.0072806027567433
 180    -0.0029351802684926
 181    0.00089394966951137
 182    -0.0099640435139058
 183    -0.004196496355015
 184    -0.00012991974869932
 185    0.00074830546999385
 186    -0.00039673569417339
 187    -0.00031342840319736
 188    0.00023432382414995
 189    0.0042215349300802
 190     0.012550707496147
 191    -0.00051482401357394
 192    -0.00025315608023471
 193    -0.0021854750828094
 194     0.046684904829828
 195     0.058325770782833
 196    0.00022540288279394
 197    -0.00013119936050678
 198    -0.0023703382158639
 199    -0.0090417214372594
 200      0.02327470037712
 201    0.0013283840498522
 202    0.00016813750442041
 203    -0.00068962565168244
 204    0.0020528221658126
 205    -0.00097252296286341
 206    0.00021098020370524
 207    2.6911057494811e-05
 208    -2.5202832377128e-07
 209     -0.01012496782121
 210     0.020241113123319
 211    0.0015908542875659
 212    0.00026409954831187
 213    0.0003328009295869
 214     0.044030923471509
 215     0.052698475478588
 216    0.0011951474979156
 217    -2.8882863954725e-07
 218    0.0021225374053699
 219    -0.0040752141679049
 220     0.016482913426509
 221    0.00036391020765548
 222    -0.00071603408509692
 223    0.0013942867073426
 224    0.0022577534187653
 225    -0.024751869584616
 226    0.00032725657865561
 227    0.00030966114031416
 228    -0.0025757240304894
