[Molden Format]
made by pyscf v[2.1.0]
[Atoms] (AU)
C   1   6     2.32946917320360    -0.63344186613258     2.37168943427863
C   2   6    -0.29669267073509     0.30039086476086     3.22269546913239
C   3   6    -2.28836574026819    -0.45088865332122     1.27613394164491
C   4   6    -1.50258360260379     0.48150977544368    -1.34195877174189
C   5   6     1.17077037184366    -0.47613539434541    -1.98531603085006
O   6   8     2.90615122545875     0.36947547242271    -0.06380660259594
O   7   8    -1.02480036707776    -0.78170410868758     5.58840958940515
O   8   8    -4.71990091118567     0.61286652808832     1.81907682367207
O   9   8    -3.21856263809797    -0.39246777018029    -3.24986406162526
C   10   6     2.14873576665020     0.54311106765225    -4.52137384344336
O   11   8     0.97527064535291    -0.64120108160005    -6.63217335814292
H   12   1     0.34900595904142    -0.48214283369541     6.76077111064570
H   13   1    -5.19719092819319     0.02690592056156     3.48444332437202
H   14   1    -0.83535721281623    -0.49952075513691    -6.37469817367093
H   15   1    -4.90002393620084     0.08874342853570    -2.71063260170675
O   16   8     4.22615893853768     0.10859122202201     4.07505454789134
H   17   1     4.38166639105427     1.93178575891951     3.94362220620171
H   18   1     2.36505838530753    -2.71537014510103     2.34202262384909
H   19   1    -0.22188597236806     2.38358526023277     3.34538215831753
H   20   1    -2.40897751016855    -2.53158672058258     1.22868291865708
H   21   1    -1.45404220764209     2.56502731408288    -1.31752650267738
H   22   1     1.14953551938192    -2.55944317338479    -2.06041941621865
H   23   1     1.89192576577406     2.61534694132780    -4.54974430175146
H   24   1     4.17463555575142     0.13656105839169    -4.65046670419078
[GTO]
1 0
 s    8 1.00
                  6665  0.00069158396281299
                  1000  0.0053257961529341
                   228   0.027060721042034
                 64.71    0.10165684614077
                 21.06     0.2745748236174
                 7.495    0.44829431892377
                 2.797    0.28490261071525
                0.5215   0.015194859206082
 s    8 1.00
                  6665  -0.00029326965268655
                  1000  -0.0023180354739745
                   228  -0.011499786038565
                 64.71  -0.046826727009787
                 21.06   -0.12846616875047
                 7.495   -0.30126627246289
                 2.797   -0.25563070233011
                0.5215      1.093793361012
 s    1 1.00
                0.1596                   1
 p    3 1.00
                 9.439   0.056979251590039
                 2.002    0.31320721150073
                0.5456    0.76037674173753
 p    1 1.00
                0.1517                   1
 d    1 1.00
                  0.55                   1

2 0
 s    8 1.00
                  6665  0.00069158396281299
                  1000  0.0053257961529341
                   228   0.027060721042034
                 64.71    0.10165684614077
                 21.06     0.2745748236174
                 7.495    0.44829431892377
                 2.797    0.28490261071525
                0.5215   0.015194859206082
 s    8 1.00
                  6665  -0.00029326965268655
                  1000  -0.0023180354739745
                   228  -0.011499786038565
                 64.71  -0.046826727009787
                 21.06   -0.12846616875047
                 7.495   -0.30126627246289
                 2.797   -0.25563070233011
                0.5215      1.093793361012
 s    1 1.00
                0.1596                   1
 p    3 1.00
                 9.439   0.056979251590039
                 2.002    0.31320721150073
                0.5456    0.76037674173753
 p    1 1.00
                0.1517                   1
 d    1 1.00
                  0.55                   1

3 0
 s    8 1.00
                  6665  0.00069158396281299
                  1000  0.0053257961529341
                   228   0.027060721042034
                 64.71    0.10165684614077
                 21.06     0.2745748236174
                 7.495    0.44829431892377
                 2.797    0.28490261071525
                0.5215   0.015194859206082
 s    8 1.00
                  6665  -0.00029326965268655
                  1000  -0.0023180354739745
                   228  -0.011499786038565
                 64.71  -0.046826727009787
                 21.06   -0.12846616875047
                 7.495   -0.30126627246289
                 2.797   -0.25563070233011
                0.5215      1.093793361012
 s    1 1.00
                0.1596                   1
 p    3 1.00
                 9.439   0.056979251590039
                 2.002    0.31320721150073
                0.5456    0.76037674173753
 p    1 1.00
                0.1517                   1
 d    1 1.00
                  0.55                   1

4 0
 s    8 1.00
                  6665  0.00069158396281299
                  1000  0.0053257961529341
                   228   0.027060721042034
                 64.71    0.10165684614077
                 21.06     0.2745748236174
                 7.495    0.44829431892377
                 2.797    0.28490261071525
                0.5215   0.015194859206082
 s    8 1.00
                  6665  -0.00029326965268655
                  1000  -0.0023180354739745
                   228  -0.011499786038565
                 64.71  -0.046826727009787
                 21.06   -0.12846616875047
                 7.495   -0.30126627246289
                 2.797   -0.25563070233011
                0.5215      1.093793361012
 s    1 1.00
                0.1596                   1
 p    3 1.00
                 9.439   0.056979251590039
                 2.002    0.31320721150073
                0.5456    0.76037674173753
 p    1 1.00
                0.1517                   1
 d    1 1.00
                  0.55                   1

5 0
 s    8 1.00
                  6665  0.00069158396281299
                  1000  0.0053257961529341
                   228   0.027060721042034
                 64.71    0.10165684614077
                 21.06     0.2745748236174
                 7.495    0.44829431892377
                 2.797    0.28490261071525
                0.5215   0.015194859206082
 s    8 1.00
                  6665  -0.00029326965268655
                  1000  -0.0023180354739745
                   228  -0.011499786038565
                 64.71  -0.046826727009787
                 21.06   -0.12846616875047
                 7.495   -0.30126627246289
                 2.797   -0.25563070233011
                0.5215      1.093793361012
 s    1 1.00
                0.1596                   1
 p    3 1.00
                 9.439   0.056979251590039
                 2.002    0.31320721150073
                0.5456    0.76037674173753
 p    1 1.00
                0.1517                   1
 d    1 1.00
                  0.55                   1

6 0
 s    8 1.00
                 11720  0.00070964594651845
                  1759  0.0054672722921914
                 400.8   0.027823118610189
                 113.7    0.10474773971146
                 37.03    0.28292084635691
                 13.27    0.44849523869833
                 5.025    0.27081688521277
                 1.013    0.01545029160744
 s    8 1.00
                 11720  -0.00031444341168873
                  1759  -0.0024821376810179
                 400.8  -0.012316355381583
                 113.7  -0.050538917343672
                 37.03   -0.13938490331632
                 13.27   -0.32507749481778
                 5.025   -0.22984830758785
                 1.013     1.0953793467883
 s    1 1.00
                0.3023                   1
 p    3 1.00
                  17.7   0.062679166281506
                 3.854    0.33353656587936
                 1.046    0.74123964163973
 p    1 1.00
                0.2753                   1
 d    1 1.00
                 1.185                   1

7 0
 s    8 1.00
                 11720  0.00070964594651845
                  1759  0.0054672722921914
                 400.8   0.027823118610189
                 113.7    0.10474773971146
                 37.03    0.28292084635691
                 13.27    0.44849523869833
                 5.025    0.27081688521277
                 1.013    0.01545029160744
 s    8 1.00
                 11720  -0.00031444341168873
                  1759  -0.0024821376810179
                 400.8  -0.012316355381583
                 113.7  -0.050538917343672
                 37.03   -0.13938490331632
                 13.27   -0.32507749481778
                 5.025   -0.22984830758785
                 1.013     1.0953793467883
 s    1 1.00
                0.3023                   1
 p    3 1.00
                  17.7   0.062679166281506
                 3.854    0.33353656587936
                 1.046    0.74123964163973
 p    1 1.00
                0.2753                   1
 d    1 1.00
                 1.185                   1

8 0
 s    8 1.00
                 11720  0.00070964594651845
                  1759  0.0054672722921914
                 400.8   0.027823118610189
                 113.7    0.10474773971146
                 37.03    0.28292084635691
                 13.27    0.44849523869833
                 5.025    0.27081688521277
                 1.013    0.01545029160744
 s    8 1.00
                 11720  -0.00031444341168873
                  1759  -0.0024821376810179
                 400.8  -0.012316355381583
                 113.7  -0.050538917343672
                 37.03   -0.13938490331632
                 13.27   -0.32507749481778
                 5.025   -0.22984830758785
                 1.013     1.0953793467883
 s    1 1.00
                0.3023                   1
 p    3 1.00
                  17.7   0.062679166281506
                 3.854    0.33353656587936
                 1.046    0.74123964163973
 p    1 1.00
                0.2753                   1
 d    1 1.00
                 1.185                   1

9 0
 s    8 1.00
                 11720  0.00070964594651845
                  1759  0.0054672722921914
                 400.8   0.027823118610189
                 113.7    0.10474773971146
                 37.03    0.28292084635691
                 13.27    0.44849523869833
                 5.025    0.27081688521277
                 1.013    0.01545029160744
 s    8 1.00
                 11720  -0.00031444341168873
                  1759  -0.0024821376810179
                 400.8  -0.012316355381583
                 113.7  -0.050538917343672
                 37.03   -0.13938490331632
                 13.27   -0.32507749481778
                 5.025   -0.22984830758785
                 1.013     1.0953793467883
 s    1 1.00
                0.3023                   1
 p    3 1.00
                  17.7   0.062679166281506
                 3.854    0.33353656587936
                 1.046    0.74123964163973
 p    1 1.00
                0.2753                   1
 d    1 1.00
                 1.185                   1

10 0
 s    8 1.00
                  6665  0.00069158396281299
                  1000  0.0053257961529341
                   228   0.027060721042034
                 64.71    0.10165684614077
                 21.06     0.2745748236174
                 7.495    0.44829431892377
                 2.797    0.28490261071525
                0.5215   0.015194859206082
 s    8 1.00
                  6665  -0.00029326965268655
                  1000  -0.0023180354739745
                   228  -0.011499786038565
                 64.71  -0.046826727009787
                 21.06   -0.12846616875047
                 7.495   -0.30126627246289
                 2.797   -0.25563070233011
                0.5215      1.093793361012
 s    1 1.00
                0.1596                   1
 p    3 1.00
                 9.439   0.056979251590039
                 2.002    0.31320721150073
                0.5456    0.76037674173753
 p    1 1.00
                0.1517                   1
 d    1 1.00
                  0.55                   1

11 0
 s    8 1.00
                 11720  0.00070964594651845
                  1759  0.0054672722921914
                 400.8   0.027823118610189
                 113.7    0.10474773971146
                 37.03    0.28292084635691
                 13.27    0.44849523869833
                 5.025    0.27081688521277
                 1.013    0.01545029160744
 s    8 1.00
                 11720  -0.00031444341168873
                  1759  -0.0024821376810179
                 400.8  -0.012316355381583
                 113.7  -0.050538917343672
                 37.03   -0.13938490331632
                 13.27   -0.32507749481778
                 5.025   -0.22984830758785
                 1.013     1.0953793467883
 s    1 1.00
                0.3023                   1
 p    3 1.00
                  17.7   0.062679166281506
                 3.854    0.33353656587936
                 1.046    0.74123964163973
 p    1 1.00
                0.2753                   1
 d    1 1.00
                 1.185                   1

12 0
 s    3 1.00
                 13.01   0.033498726389998
                 1.962    0.23480080117413
                0.4446     0.8136829578829
 s    1 1.00
                 0.122                   1
 p    1 1.00
                 0.727                   1

13 0
 s    3 1.00
                 13.01   0.033498726389998
                 1.962    0.23480080117413
                0.4446     0.8136829578829
 s    1 1.00
                 0.122                   1
 p    1 1.00
                 0.727                   1

14 0
 s    3 1.00
                 13.01   0.033498726389998
                 1.962    0.23480080117413
                0.4446     0.8136829578829
 s    1 1.00
                 0.122                   1
 p    1 1.00
                 0.727                   1

15 0
 s    3 1.00
                 13.01   0.033498726389998
                 1.962    0.23480080117413
                0.4446     0.8136829578829
 s    1 1.00
                 0.122                   1
 p    1 1.00
                 0.727                   1

16 0
 s    8 1.00
                 11720  0.00070964594651845
                  1759  0.0054672722921914
                 400.8   0.027823118610189
                 113.7    0.10474773971146
                 37.03    0.28292084635691
                 13.27    0.44849523869833
                 5.025    0.27081688521277
                 1.013    0.01545029160744
 s    8 1.00
                 11720  -0.00031444341168873
                  1759  -0.0024821376810179
                 400.8  -0.012316355381583
                 113.7  -0.050538917343672
                 37.03   -0.13938490331632
                 13.27   -0.32507749481778
                 5.025   -0.22984830758785
                 1.013     1.0953793467883
 s    1 1.00
                0.3023                   1
 p    3 1.00
                  17.7   0.062679166281506
                 3.854    0.33353656587936
                 1.046    0.74123964163973
 p    1 1.00
                0.2753                   1
 d    1 1.00
                 1.185                   1

17 0
 s    3 1.00
                 13.01   0.033498726389998
                 1.962    0.23480080117413
                0.4446     0.8136829578829
 s    1 1.00
                 0.122                   1
 p    1 1.00
                 0.727                   1

18 0
 s    3 1.00
                 13.01   0.033498726389998
                 1.962    0.23480080117413
                0.4446     0.8136829578829
 s    1 1.00
                 0.122                   1
 p    1 1.00
                 0.727                   1

19 0
 s    3 1.00
                 13.01   0.033498726389998
                 1.962    0.23480080117413
                0.4446     0.8136829578829
 s    1 1.00
                 0.122                   1
 p    1 1.00
                 0.727                   1

20 0
 s    3 1.00
                 13.01   0.033498726389998
                 1.962    0.23480080117413
                0.4446     0.8136829578829
 s    1 1.00
                 0.122                   1
 p    1 1.00
                 0.727                   1

21 0
 s    3 1.00
                 13.01   0.033498726389998
                 1.962    0.23480080117413
                0.4446     0.8136829578829
 s    1 1.00
                 0.122                   1
 p    1 1.00
                 0.727                   1

22 0
 s    3 1.00
                 13.01   0.033498726389998
                 1.962    0.23480080117413
                0.4446     0.8136829578829
 s    1 1.00
                 0.122                   1
 p    1 1.00
                 0.727                   1

23 0
 s    3 1.00
                 13.01   0.033498726389998
                 1.962    0.23480080117413
                0.4446     0.8136829578829
 s    1 1.00
                 0.122                   1
 p    1 1.00
                 0.727                   1

24 0
 s    3 1.00
                 13.01   0.033498726389998
                 1.962    0.23480080117413
                0.4446     0.8136829578829
 s    1 1.00
                 0.122                   1
 p    1 1.00
                 0.727                   1

[5d]
[7f]
[9g]

[MO]
 Sym= A
 Ene=     -20.5892274
 Spin= Alpha
 Occup=    2.00000
   1    0.0049558657730617
   2      -0.2190531137248
   3     -0.11855078389421
   4    -0.019623023528441
   5      0.38333162297389
   6     0.021383572365414
   7     0.026355290192702
   8      0.15119336917714
   9      0.02688204613383
  10     0.012252989734985
  11    0.0024765014265752
  12    -0.00011127408186126
  13     0.022977718428187
  14    0.0016318587589964
  15    0.0025541224989042
  16     0.023582132940079
  17     0.051628600799023
  18     0.034826782530566
  19    -0.0066108270481473
  20    -0.013729412467269
  21     0.028786592639787
  22    -0.0035298003977549
  23    -0.011811142353872
  24     0.005263584343692
  25    0.00029267680844786
  26    -0.0039973226792613
  27     0.007146426279451
  28     0.011767854640682
  29    -0.00063643925400273
  30    0.0050432782110893
  31     0.010612251055991
  32    0.0068410845491662
  33    -0.0067473061188556
  34    0.0047012397060832
  35    0.0029055151610013
  36    -0.0097985863292672
  37     0.010919850706707
  38    -0.0014423130887312
  39    0.00043877758962846
  40    -0.0010168632832537
  41    0.0024876578100077
  42    -0.00021754750440026
  43    -0.0032184947505626
  44    -0.0048112856706525
  45     0.039432206162078
  46    0.0021206562556827
  47    0.0011463149740043
  48    -0.0013034832558387
  49     0.012693064775111
  50    -0.005701422852764
  51    0.00031452729726863
  52    0.00026500672320187
  53    0.00099800755507126
  54    -0.00068065446206496
  55    0.00081606152170345
  56    -0.00080896498377236
  57    0.0022099924231806
  58    0.0092333681049991
  59    -0.0045773013978107
  60    0.0033433037688218
  61    -0.010743222007811
  62    0.0071642855630828
  63      0.01747412539631
  64    -0.023465295998815
  65    -0.0061270083614801
  66    0.0012658787872634
  67    7.7184849632781e-05
  68    0.00039979990541952
  69    0.0011745597244521
  70    -0.0013273652739504
  71    0.0018072453256679
  72     0.012013598584387
  73     0.018465131353755
  74    -0.0053428607454057
  75    -0.017035383244537
  76     0.017512800831591
  77    -0.0066409254224056
  78    -0.033644667760403
  79    0.0080819476451877
  80    0.0015099678513182
  81    -0.00062775088575098
  82     0.006582352458022
  83    0.0037227588828723
  84    -0.00071189434357695
  85    0.00011563019154025
  86    0.0021205620158878
  87     0.005069898976442
  88    0.0035717232374077
  89    0.00039040332732596
  90    -0.0035979510306759
  91    0.00027640447030341
  92    -0.00097336095800889
  93    -0.0021429291048795
  94    0.00010801031986129
  95    -0.00062226350573356
  96    0.00039356916794044
  97    0.00050681204453278
  98    0.00050014020736259
  99    8.2315183513913e-05
 100    -0.00030315102592039
 101    0.00057015280053865
 102    -0.00078470641438958
 103    0.0022046556368791
 104    0.0013005860774715
 105    0.00039672034222472
 106    0.0042493875124612
 107    -0.00083059930920013
 108    4.1144348894205e-05
 109    0.00013536878164694
 110    -3.1009807228953e-05
 111    -0.00014598665495035
 112    6.8740755335611e-05
 113    0.00041969611676675
 114    0.00042976692425241
 115    -0.0045718839681438
 116    -0.00050411589991156
 117    -0.00074384994951612
 118    -1.615197589864e-05
 119    -0.0026663681160796
 120    -0.00061056198866455
 121    -0.0015784543720128
 122    -0.0001249833390597
 123    -0.00011795534009913
 124    -9.9984289744937e-05
 125    -2.7017516948991e-05
 126    -2.6674362784055e-05
 127    0.00057644184550461
 128    -0.00026027355198034
 129    -0.0030639541214133
 130    0.0014057818121416
 131    0.0022930558801189
 132    -0.0031671542502156
 133    -0.0049721773435533
 134    0.0055607785920088
 135    -0.0066762417601621
 136    -0.00026223028700642
 137    -6.7747139145902e-06
 138    0.0003999817333027
 139    7.0759193100967e-05
 140      -0.0002860669892
 141    0.00028176425291914
 142    0.00019850224256078
 143    -0.0029155188297248
 144    -0.00037126171931427
 145    -0.00063155992717787
 146    -0.00061563397255389
 147    -0.00080568700660076
 148    -0.0020976115175159
 149    -0.001066887096071
 150    -7.6514390487122e-05
 151    -3.1980974085114e-05
 152    -6.4595447413806e-05
 153    -5.1954602455642e-06
 154    4.9670722140834e-06
 155    0.00097083160814118
 156    7.8400174062411e-05
 157    5.189113335041e-05
 158    0.00023055229269577
 159    -0.0012596703103307
 160    0.00054498108396765
 161    0.0012752120531132
 162    0.00017021613908717
 163    0.00018135243609324
 164    -0.00034038623206932
 165    0.00032968316989538
 166    -0.0011283641316003
 167    4.3401109928036e-05
 168    -1.8805104387288e-05
 169    -4.8726233401866e-05
 170    0.00041863487852251
 171    0.0015606737713555
 172    0.00030698956655525
 173    4.8641912717292e-05
 174    0.00037376832517708
 175    0.0023292520074726
 176     0.014313025967486
 177      0.02261991589571
 178     -0.01554755196951
 179    -0.0062733850709799
 180    -0.017143030509923
 181    0.0024304992676498
 182    -0.010754393805685
 183    -0.0040319570992499
 184    0.0016351782002121
 185    -0.00078683592001206
 186    -0.0054024253975531
 187    0.0042872923232469
 188    -0.0061155395301259
 189    -0.028086818875349
 190    -0.043238992525109
 191    -0.0027914616116442
 192    -0.0013701084409051
 193    -0.0032346236213223
 194     -0.43687163716801
 195     -0.13224462518345
 196     0.001595073825648
 197    -0.034507570217345
 198    -0.00058410328400451
 199    -0.018663481362356
 200    -0.043963531218702
 201    -0.00023610192539913
 202    -0.00087620811981961
 203    0.00020129370307122
 204    0.0044400785928825
 205    -0.005559976400001
 206    -0.00014994954206766
 207    0.0009915288055612
 208    6.4254564373709e-05
 209    0.00094648120989041
 210    -0.00020628261241791
 211    -0.0004932837499845
 212    1.3613522153423e-05
 213    -0.0003554894163993
 214     0.004613170679154
 215    -0.011817668947937
 216    -0.0003121278178678
 217    0.0010772118345091
 218    0.00021131300308285
 219    0.0031984772771539
 220    -0.0029081312097338
 221    0.00014137504893647
 222    5.4333509529306e-05
 223    2.7398098499547e-05
 224    0.00087686580031101
 225    0.0030938630588203
 226    4.7287565089051e-05
 227    7.8676574494686e-05
 228    8.0091551414041e-05
