[Molden Format]
made by pyscf v[2.1.0]
[Atoms] (AU)
C   1   6     2.32946917320360    -0.63344186613258     2.37168943427863
C   2   6    -0.29669267073509     0.30039086476086     3.22269546913239
C   3   6    -2.28836574026819    -0.45088865332122     1.27613394164491
C   4   6    -1.50258360260379     0.48150977544368    -1.34195877174189
C   5   6     1.17077037184366    -0.47613539434541    -1.98531603085006
O   6   8     2.90615122545875     0.36947547242271    -0.06380660259594
O   7   8    -1.02480036707776    -0.78170410868758     5.58840958940515
O   8   8    -4.71990091118567     0.61286652808832     1.81907682367207
O   9   8    -3.21856263809797    -0.39246777018029    -3.24986406162526
C   10   6     2.14873576665020     0.54311106765225    -4.52137384344336
O   11   8     0.97527064535291    -0.64120108160005    -6.63217335814292
H   12   1     0.34900595904142    -0.48214283369541     6.76077111064570
H   13   1    -5.19719092819319     0.02690592056156     3.48444332437202
H   14   1    -0.83535721281623    -0.49952075513691    -6.37469817367093
H   15   1    -4.90002393620084     0.08874342853570    -2.71063260170675
O   16   8     4.22615893853768     0.10859122202201     4.07505454789134
H   17   1     4.38166639105427     1.93178575891951     3.94362220620171
H   18   1     2.36505838530753    -2.71537014510103     2.34202262384909
H   19   1    -0.22188597236806     2.38358526023277     3.34538215831753
H   20   1    -2.40897751016855    -2.53158672058258     1.22868291865708
H   21   1    -1.45404220764209     2.56502731408288    -1.31752650267738
H   22   1     1.14953551938192    -2.55944317338479    -2.06041941621865
H   23   1     1.89192576577406     2.61534694132780    -4.54974430175146
H   24   1     4.17463555575142     0.13656105839169    -4.65046670419078
[GTO]
1 0
 s    8 1.00
                  6665  0.00069158396281299
                  1000  0.0053257961529341
                   228   0.027060721042034
                 64.71    0.10165684614077
                 21.06     0.2745748236174
                 7.495    0.44829431892377
                 2.797    0.28490261071525
                0.5215   0.015194859206082
 s    8 1.00
                  6665  -0.00029326965268655
                  1000  -0.0023180354739745
                   228  -0.011499786038565
                 64.71  -0.046826727009787
                 21.06   -0.12846616875047
                 7.495   -0.30126627246289
                 2.797   -0.25563070233011
                0.5215      1.093793361012
 s    1 1.00
                0.1596                   1
 p    3 1.00
                 9.439   0.056979251590039
                 2.002    0.31320721150073
                0.5456    0.76037674173753
 p    1 1.00
                0.1517                   1
 d    1 1.00
                  0.55                   1

2 0
 s    8 1.00
                  6665  0.00069158396281299
                  1000  0.0053257961529341
                   228   0.027060721042034
                 64.71    0.10165684614077
                 21.06     0.2745748236174
                 7.495    0.44829431892377
                 2.797    0.28490261071525
                0.5215   0.015194859206082
 s    8 1.00
                  6665  -0.00029326965268655
                  1000  -0.0023180354739745
                   228  -0.011499786038565
                 64.71  -0.046826727009787
                 21.06   -0.12846616875047
                 7.495   -0.30126627246289
                 2.797   -0.25563070233011
                0.5215      1.093793361012
 s    1 1.00
                0.1596                   1
 p    3 1.00
                 9.439   0.056979251590039
                 2.002    0.31320721150073
                0.5456    0.76037674173753
 p    1 1.00
                0.1517                   1
 d    1 1.00
                  0.55                   1

3 0
 s    8 1.00
                  6665  0.00069158396281299
                  1000  0.0053257961529341
                   228   0.027060721042034
                 64.71    0.10165684614077
                 21.06     0.2745748236174
                 7.495    0.44829431892377
                 2.797    0.28490261071525
                0.5215   0.015194859206082
 s    8 1.00
                  6665  -0.00029326965268655
                  1000  -0.0023180354739745
                   228  -0.011499786038565
                 64.71  -0.046826727009787
                 21.06   -0.12846616875047
                 7.495   -0.30126627246289
                 2.797   -0.25563070233011
                0.5215      1.093793361012
 s    1 1.00
                0.1596                   1
 p    3 1.00
                 9.439   0.056979251590039
                 2.002    0.31320721150073
                0.5456    0.76037674173753
 p    1 1.00
                0.1517                   1
 d    1 1.00
                  0.55                   1

4 0
 s    8 1.00
                  6665  0.00069158396281299
                  1000  0.0053257961529341
                   228   0.027060721042034
                 64.71    0.10165684614077
                 21.06     0.2745748236174
                 7.495    0.44829431892377
                 2.797    0.28490261071525
                0.5215   0.015194859206082
 s    8 1.00
                  6665  -0.00029326965268655
                  1000  -0.0023180354739745
                   228  -0.011499786038565
                 64.71  -0.046826727009787
                 21.06   -0.12846616875047
                 7.495   -0.30126627246289
                 2.797   -0.25563070233011
                0.5215      1.093793361012
 s    1 1.00
                0.1596                   1
 p    3 1.00
                 9.439   0.056979251590039
                 2.002    0.31320721150073
                0.5456    0.76037674173753
 p    1 1.00
                0.1517                   1
 d    1 1.00
                  0.55                   1

5 0
 s    8 1.00
                  6665  0.00069158396281299
                  1000  0.0053257961529341
                   228   0.027060721042034
                 64.71    0.10165684614077
                 21.06     0.2745748236174
                 7.495    0.44829431892377
                 2.797    0.28490261071525
                0.5215   0.015194859206082
 s    8 1.00
                  6665  -0.00029326965268655
                  1000  -0.0023180354739745
                   228  -0.011499786038565
                 64.71  -0.046826727009787
                 21.06   -0.12846616875047
                 7.495   -0.30126627246289
                 2.797   -0.25563070233011
                0.5215      1.093793361012
 s    1 1.00
                0.1596                   1
 p    3 1.00
                 9.439   0.056979251590039
                 2.002    0.31320721150073
                0.5456    0.76037674173753
 p    1 1.00
                0.1517                   1
 d    1 1.00
                  0.55                   1

6 0
 s    8 1.00
                 11720  0.00070964594651845
                  1759  0.0054672722921914
                 400.8   0.027823118610189
                 113.7    0.10474773971146
                 37.03    0.28292084635691
                 13.27    0.44849523869833
                 5.025    0.27081688521277
                 1.013    0.01545029160744
 s    8 1.00
                 11720  -0.00031444341168873
                  1759  -0.0024821376810179
                 400.8  -0.012316355381583
                 113.7  -0.050538917343672
                 37.03   -0.13938490331632
                 13.27   -0.32507749481778
                 5.025   -0.22984830758785
                 1.013     1.0953793467883
 s    1 1.00
                0.3023                   1
 p    3 1.00
                  17.7   0.062679166281506
                 3.854    0.33353656587936
                 1.046    0.74123964163973
 p    1 1.00
                0.2753                   1
 d    1 1.00
                 1.185                   1

7 0
 s    8 1.00
                 11720  0.00070964594651845
                  1759  0.0054672722921914
                 400.8   0.027823118610189
                 113.7    0.10474773971146
                 37.03    0.28292084635691
                 13.27    0.44849523869833
                 5.025    0.27081688521277
                 1.013    0.01545029160744
 s    8 1.00
                 11720  -0.00031444341168873
                  1759  -0.0024821376810179
                 400.8  -0.012316355381583
                 113.7  -0.050538917343672
                 37.03   -0.13938490331632
                 13.27   -0.32507749481778
                 5.025   -0.22984830758785
                 1.013     1.0953793467883
 s    1 1.00
                0.3023                   1
 p    3 1.00
                  17.7   0.062679166281506
                 3.854    0.33353656587936
                 1.046    0.74123964163973
 p    1 1.00
                0.2753                   1
 d    1 1.00
                 1.185                   1

8 0
 s    8 1.00
                 11720  0.00070964594651845
                  1759  0.0054672722921914
                 400.8   0.027823118610189
                 113.7    0.10474773971146
                 37.03    0.28292084635691
                 13.27    0.44849523869833
                 5.025    0.27081688521277
                 1.013    0.01545029160744
 s    8 1.00
                 11720  -0.00031444341168873
                  1759  -0.0024821376810179
                 400.8  -0.012316355381583
                 113.7  -0.050538917343672
                 37.03   -0.13938490331632
                 13.27   -0.32507749481778
                 5.025   -0.22984830758785
                 1.013     1.0953793467883
 s    1 1.00
                0.3023                   1
 p    3 1.00
                  17.7   0.062679166281506
                 3.854    0.33353656587936
                 1.046    0.74123964163973
 p    1 1.00
                0.2753                   1
 d    1 1.00
                 1.185                   1

9 0
 s    8 1.00
                 11720  0.00070964594651845
                  1759  0.0054672722921914
                 400.8   0.027823118610189
                 113.7    0.10474773971146
                 37.03    0.28292084635691
                 13.27    0.44849523869833
                 5.025    0.27081688521277
                 1.013    0.01545029160744
 s    8 1.00
                 11720  -0.00031444341168873
                  1759  -0.0024821376810179
                 400.8  -0.012316355381583
                 113.7  -0.050538917343672
                 37.03   -0.13938490331632
                 13.27   -0.32507749481778
                 5.025   -0.22984830758785
                 1.013     1.0953793467883
 s    1 1.00
                0.3023                   1
 p    3 1.00
                  17.7   0.062679166281506
                 3.854    0.33353656587936
                 1.046    0.74123964163973
 p    1 1.00
                0.2753                   1
 d    1 1.00
                 1.185                   1

10 0
 s    8 1.00
                  6665  0.00069158396281299
                  1000  0.0053257961529341
                   228   0.027060721042034
                 64.71    0.10165684614077
                 21.06     0.2745748236174
                 7.495    0.44829431892377
                 2.797    0.28490261071525
                0.5215   0.015194859206082
 s    8 1.00
                  6665  -0.00029326965268655
                  1000  -0.0023180354739745
                   228  -0.011499786038565
                 64.71  -0.046826727009787
                 21.06   -0.12846616875047
                 7.495   -0.30126627246289
                 2.797   -0.25563070233011
                0.5215      1.093793361012
 s    1 1.00
                0.1596                   1
 p    3 1.00
                 9.439   0.056979251590039
                 2.002    0.31320721150073
                0.5456    0.76037674173753
 p    1 1.00
                0.1517                   1
 d    1 1.00
                  0.55                   1

11 0
 s    8 1.00
                 11720  0.00070964594651845
                  1759  0.0054672722921914
                 400.8   0.027823118610189
                 113.7    0.10474773971146
                 37.03    0.28292084635691
                 13.27    0.44849523869833
                 5.025    0.27081688521277
                 1.013    0.01545029160744
 s    8 1.00
                 11720  -0.00031444341168873
                  1759  -0.0024821376810179
                 400.8  -0.012316355381583
                 113.7  -0.050538917343672
                 37.03   -0.13938490331632
                 13.27   -0.32507749481778
                 5.025   -0.22984830758785
                 1.013     1.0953793467883
 s    1 1.00
                0.3023                   1
 p    3 1.00
                  17.7   0.062679166281506
                 3.854    0.33353656587936
                 1.046    0.74123964163973
 p    1 1.00
                0.2753                   1
 d    1 1.00
                 1.185                   1

12 0
 s    3 1.00
                 13.01   0.033498726389998
                 1.962    0.23480080117413
                0.4446     0.8136829578829
 s    1 1.00
                 0.122                   1
 p    1 1.00
                 0.727                   1

13 0
 s    3 1.00
                 13.01   0.033498726389998
                 1.962    0.23480080117413
                0.4446     0.8136829578829
 s    1 1.00
                 0.122                   1
 p    1 1.00
                 0.727                   1

14 0
 s    3 1.00
                 13.01   0.033498726389998
                 1.962    0.23480080117413
                0.4446     0.8136829578829
 s    1 1.00
                 0.122                   1
 p    1 1.00
                 0.727                   1

15 0
 s    3 1.00
                 13.01   0.033498726389998
                 1.962    0.23480080117413
                0.4446     0.8136829578829
 s    1 1.00
                 0.122                   1
 p    1 1.00
                 0.727                   1

16 0
 s    8 1.00
                 11720  0.00070964594651845
                  1759  0.0054672722921914
                 400.8   0.027823118610189
                 113.7    0.10474773971146
                 37.03    0.28292084635691
                 13.27    0.44849523869833
                 5.025    0.27081688521277
                 1.013    0.01545029160744
 s    8 1.00
                 11720  -0.00031444341168873
                  1759  -0.0024821376810179
                 400.8  -0.012316355381583
                 113.7  -0.050538917343672
                 37.03   -0.13938490331632
                 13.27   -0.32507749481778
                 5.025   -0.22984830758785
                 1.013     1.0953793467883
 s    1 1.00
                0.3023                   1
 p    3 1.00
                  17.7   0.062679166281506
                 3.854    0.33353656587936
                 1.046    0.74123964163973
 p    1 1.00
                0.2753                   1
 d    1 1.00
                 1.185                   1

17 0
 s    3 1.00
                 13.01   0.033498726389998
                 1.962    0.23480080117413
                0.4446     0.8136829578829
 s    1 1.00
                 0.122                   1
 p    1 1.00
                 0.727                   1

18 0
 s    3 1.00
                 13.01   0.033498726389998
                 1.962    0.23480080117413
                0.4446     0.8136829578829
 s    1 1.00
                 0.122                   1
 p    1 1.00
                 0.727                   1

19 0
 s    3 1.00
                 13.01   0.033498726389998
                 1.962    0.23480080117413
                0.4446     0.8136829578829
 s    1 1.00
                 0.122                   1
 p    1 1.00
                 0.727                   1

20 0
 s    3 1.00
                 13.01   0.033498726389998
                 1.962    0.23480080117413
                0.4446     0.8136829578829
 s    1 1.00
                 0.122                   1
 p    1 1.00
                 0.727                   1

21 0
 s    3 1.00
                 13.01   0.033498726389998
                 1.962    0.23480080117413
                0.4446     0.8136829578829
 s    1 1.00
                 0.122                   1
 p    1 1.00
                 0.727                   1

22 0
 s    3 1.00
                 13.01   0.033498726389998
                 1.962    0.23480080117413
                0.4446     0.8136829578829
 s    1 1.00
                 0.122                   1
 p    1 1.00
                 0.727                   1

23 0
 s    3 1.00
                 13.01   0.033498726389998
                 1.962    0.23480080117413
                0.4446     0.8136829578829
 s    1 1.00
                 0.122                   1
 p    1 1.00
                 0.727                   1

24 0
 s    3 1.00
                 13.01   0.033498726389998
                 1.962    0.23480080117413
                0.4446     0.8136829578829
 s    1 1.00
                 0.122                   1
 p    1 1.00
                 0.727                   1

[5d]
[7f]
[9g]

[MO]
 Sym= A
 Ene=     -20.5892274
 Spin= Alpha
 Occup=    2.00000
   1    -0.0039962642751267
   2    -0.044213706687168
   3    -0.033218579034102
   4    -0.0032190711234161
   5    -0.020826760094424
   6     0.074821253225851
   7     0.025639307899457
   8    0.0046304987357137
   9     0.016269513676184
  10    -0.010735320623839
  11    -0.016690339301653
  12    -0.0061892972525023
  13     -0.00289628706401
  14    0.0048331710997837
  15    -0.0018000289057725
  16    0.0048681234760249
  17     0.051239049703263
  18     0.010047099872967
  19    -0.012276112811194
  20    -0.0014652709227908
  21    0.0081949217883511
  22    -0.034355635998647
  23    -0.014555902133918
  24    -0.0014402697071922
  25    0.0029108530834073
  26    0.00058969427182968
  27    6.487159921123e-05
  28    -0.0011017780600222
  29    0.0027817746805861
  30    0.0077866102594509
  31    -0.043505007167208
  32     0.005483688735333
  33    0.0027592191615286
  34    5.8776262883724e-05
  35    -0.012251496520044
  36    -0.00032896923701124
  37    -0.00012915798647052
  38    0.00054367742014929
  39    0.00047696601914406
  40    0.00025764653237019
  41    -0.001310285788911
  42    -0.00036471362276942
  43    -0.0017844114738997
  44    0.0051195442026322
  45     0.048721506078009
  46    0.0097849125271438
  47    -0.012253265087965
  48    -0.0049755540720014
  49     0.030718819592138
  50    -0.025029886356214
  51     0.010025620658582
  52    0.00053912100830224
  53    -0.0022423998129935
  54    -0.00016903526075659
  55    -0.0016314193712545
  56    -0.0014966354671147
  57    -0.0019765361792425
  58    -0.044092799277457
  59    -0.051281806743578
  60    -0.040727388037413
  61     -0.02004652079188
  62     -0.04618863075348
  63    0.0047792518615332
  64    -0.015045886463679
  65    -0.032704288167113
  66     -0.01894161730967
  67    0.0015898406260801
  68    0.0045707329027331
  69    0.0023053948398156
  70    0.0063949624508819
  71    -0.0032565704352636
  72      0.35350585658912
  73      0.45296526058637
  74       0.3427731596056
  75      0.25648337673917
  76    -0.081632852087201
  77      0.25819888855414
  78      0.20115214471234
  79    -0.065362566128354
  80    0.0048865504009784
  81    0.0035413150373304
  82    0.0037267860043485
  83    -0.0041497961947047
  84    -0.012509413192538
  85    3.5521362718075e-05
  86    -0.0030750330032004
  87    -0.010825745602718
  88    -0.0058528749082991
  89     0.000533259104259
  90    0.0062426168763314
  91    -0.0050267398432152
  92    0.0034161835290152
  93     0.011271248800907
  94    9.0493294422465e-05
  95    -0.00037033051898943
  96     0.000222933242558
  97    0.00023627653317727
  98    -3.5644878182262e-05
  99    -0.00048770598184218
 100    -0.00053995885572205
 101    0.0052905132375926
 102    -3.140475309898e-05
 103    -0.00042619430039553
 104    -9.5753170095985e-05
 105    0.0043482831486796
 106    -0.00074949233333194
 107    -0.0011347307946083
 108    -0.00010999770850512
 109    -3.2000751224673e-05
 110    -3.0015630276046e-05
 111    0.00024870370758141
 112    -0.00010872736706591
 113    -0.00020280873913576
 114    -0.0037305889664488
 115    -0.0088219949945783
 116    -0.0049389847173027
 117    0.00076462395202575
 118    -0.0035849433348558
 119    -0.0034259478579272
 120    0.0040914508069072
 121    -0.0034582000124214
 122    -0.00048918521651288
 123    0.00031492293177394
 124    -0.0001017207744401
 125    0.00059575003338888
 126    -0.00019534975167965
 127    0.0014449897937864
 128    -0.019378881772202
 129    -0.063646694106589
 130    -0.0013027122561378
 131    0.0051625020716191
 132    -0.025677325431901
 133    5.2094500622082e-06
 134      0.01940548819464
 135    0.0015307431679965
 136    -0.0028806402830219
 137    -0.00065665372516547
 138    0.00016474243591725
 139    0.00034952145907667
 140    0.0023843781964486
 141    -0.0016510658555808
 142    3.5362581698914e-05
 143     0.019252137662813
 144     0.003884745627217
 145    0.0035263168685834
 146    0.0072168137983118
 147    0.0082715891984948
 148    0.0056126616921075
 149     0.012447000767172
 150    -5.8090239665305e-05
 151    0.00019836418791933
 152    0.00044385477317785
 153    -0.00018209255317051
 154    0.00036502448071767
 155    -0.002369890002109
 156    -0.00065279452849558
 157    0.00031006106125135
 158    0.0001290358445358
 159    0.00046902948951822
 160    -0.00013742911277472
 161    0.00083506780463269
 162    -0.00025521490802779
 163    8.1744998361982e-05
 164    -3.5415498796989e-05
 165    -0.0016628833675967
 166    0.0020497524446616
 167    -0.00017218972319871
 168    -0.00011114998044144
 169    0.00013007073049096
 170    0.0054492746796408
 171    0.0071134335842924
 172    3.8190685361108e-05
 173    -6.5516517894244e-05
 174    -0.0005117147735573
 175     0.001677923274421
 176    -0.0094369366786748
 177    -0.037215743090854
 178      0.01114732725775
 179    -0.0041694302040021
 180     0.023705930551761
 181    0.0075704112403295
 182    -0.0064467256643565
 183     0.020678735826824
 184    -0.0009483920016342
 185    -0.0012632425805348
 186    0.00037916301155274
 187    0.00066291038924056
 188    0.0012503482429171
 189    -0.00049466658362952
 190     0.021572157667062
 191    0.0013149631556948
 192    -0.00076702668116658
 193    -0.0017819494927189
 194      0.01329193216643
 195     0.029146031385435
 196    -0.0015397398170343
 197    -0.00092730670422115
 198    0.0017335219997781
 199    -0.0027506864580415
 200     0.012061086825687
 201    0.00039873097167376
 202    -0.000340345925484
 203    -4.8351825146748e-05
 204    -0.001625278775378
 205    -0.0034986895593815
 206    0.0005536557957525
 207    -0.00025283236323142
 208    -0.00015284639481334
 209    -0.0026338161056128
 210     0.012944981434569
 211    4.7245304590226e-05
 212    -0.0005166172609042
 213    -0.0004872389728175
 214     0.014585485338535
 215     0.027054908288904
 216    -0.0018860338518143
 217    -0.00061647155002395
 218    6.8173935468895e-05
 219    -0.0048833462385188
 220    0.0093777186882587
 221    8.9379132702691e-05
 222    9.8320588637067e-05
 223    -0.00020153765656955
 224    -0.0077372946164125
 225     0.024108804968878
 226    0.00029816146364207
 227    -0.00027982271824217
 228    0.00096192608471466
