[Molden Format]
made by pyscf v[2.1.0]
[Atoms] (AU)
C   1   6     2.32946917320360    -0.63344186613258     2.37168943427863
C   2   6    -0.29669267073509     0.30039086476086     3.22269546913239
C   3   6    -2.28836574026819    -0.45088865332122     1.27613394164491
C   4   6    -1.50258360260379     0.48150977544368    -1.34195877174189
C   5   6     1.17077037184366    -0.47613539434541    -1.98531603085006
O   6   8     2.90615122545875     0.36947547242271    -0.06380660259594
O   7   8    -1.02480036707776    -0.78170410868758     5.58840958940515
O   8   8    -4.71990091118567     0.61286652808832     1.81907682367207
O   9   8    -3.21856263809797    -0.39246777018029    -3.24986406162526
C   10   6     2.14873576665020     0.54311106765225    -4.52137384344336
O   11   8     0.97527064535291    -0.64120108160005    -6.63217335814292
H   12   1     0.34900595904142    -0.48214283369541     6.76077111064570
H   13   1    -5.19719092819319     0.02690592056156     3.48444332437202
H   14   1    -0.83535721281623    -0.49952075513691    -6.37469817367093
H   15   1    -4.90002393620084     0.08874342853570    -2.71063260170675
O   16   8     4.22615893853768     0.10859122202201     4.07505454789134
H   17   1     4.38166639105427     1.93178575891951     3.94362220620171
H   18   1     2.36505838530753    -2.71537014510103     2.34202262384909
H   19   1    -0.22188597236806     2.38358526023277     3.34538215831753
H   20   1    -2.40897751016855    -2.53158672058258     1.22868291865708
H   21   1    -1.45404220764209     2.56502731408288    -1.31752650267738
H   22   1     1.14953551938192    -2.55944317338479    -2.06041941621865
H   23   1     1.89192576577406     2.61534694132780    -4.54974430175146
H   24   1     4.17463555575142     0.13656105839169    -4.65046670419078
[GTO]
1 0
 s    8 1.00
                  6665  0.00069158396281299
                  1000  0.0053257961529341
                   228   0.027060721042034
                 64.71    0.10165684614077
                 21.06     0.2745748236174
                 7.495    0.44829431892377
                 2.797    0.28490261071525
                0.5215   0.015194859206082
 s    8 1.00
                  6665  -0.00029326965268655
                  1000  -0.0023180354739745
                   228  -0.011499786038565
                 64.71  -0.046826727009787
                 21.06   -0.12846616875047
                 7.495   -0.30126627246289
                 2.797   -0.25563070233011
                0.5215      1.093793361012
 s    1 1.00
                0.1596                   1
 p    3 1.00
                 9.439   0.056979251590039
                 2.002    0.31320721150073
                0.5456    0.76037674173753
 p    1 1.00
                0.1517                   1
 d    1 1.00
                  0.55                   1

2 0
 s    8 1.00
                  6665  0.00069158396281299
                  1000  0.0053257961529341
                   228   0.027060721042034
                 64.71    0.10165684614077
                 21.06     0.2745748236174
                 7.495    0.44829431892377
                 2.797    0.28490261071525
                0.5215   0.015194859206082
 s    8 1.00
                  6665  -0.00029326965268655
                  1000  -0.0023180354739745
                   228  -0.011499786038565
                 64.71  -0.046826727009787
                 21.06   -0.12846616875047
                 7.495   -0.30126627246289
                 2.797   -0.25563070233011
                0.5215      1.093793361012
 s    1 1.00
                0.1596                   1
 p    3 1.00
                 9.439   0.056979251590039
                 2.002    0.31320721150073
                0.5456    0.76037674173753
 p    1 1.00
                0.1517                   1
 d    1 1.00
                  0.55                   1

3 0
 s    8 1.00
                  6665  0.00069158396281299
                  1000  0.0053257961529341
                   228   0.027060721042034
                 64.71    0.10165684614077
                 21.06     0.2745748236174
                 7.495    0.44829431892377
                 2.797    0.28490261071525
                0.5215   0.015194859206082
 s    8 1.00
                  6665  -0.00029326965268655
                  1000  -0.0023180354739745
                   228  -0.011499786038565
                 64.71  -0.046826727009787
                 21.06   -0.12846616875047
                 7.495   -0.30126627246289
                 2.797   -0.25563070233011
                0.5215      1.093793361012
 s    1 1.00
                0.1596                   1
 p    3 1.00
                 9.439   0.056979251590039
                 2.002    0.31320721150073
                0.5456    0.76037674173753
 p    1 1.00
                0.1517                   1
 d    1 1.00
                  0.55                   1

4 0
 s    8 1.00
                  6665  0.00069158396281299
                  1000  0.0053257961529341
                   228   0.027060721042034
                 64.71    0.10165684614077
                 21.06     0.2745748236174
                 7.495    0.44829431892377
                 2.797    0.28490261071525
                0.5215   0.015194859206082
 s    8 1.00
                  6665  -0.00029326965268655
                  1000  -0.0023180354739745
                   228  -0.011499786038565
                 64.71  -0.046826727009787
                 21.06   -0.12846616875047
                 7.495   -0.30126627246289
                 2.797   -0.25563070233011
                0.5215      1.093793361012
 s    1 1.00
                0.1596                   1
 p    3 1.00
                 9.439   0.056979251590039
                 2.002    0.31320721150073
                0.5456    0.76037674173753
 p    1 1.00
                0.1517                   1
 d    1 1.00
                  0.55                   1

5 0
 s    8 1.00
                  6665  0.00069158396281299
                  1000  0.0053257961529341
                   228   0.027060721042034
                 64.71    0.10165684614077
                 21.06     0.2745748236174
                 7.495    0.44829431892377
                 2.797    0.28490261071525
                0.5215   0.015194859206082
 s    8 1.00
                  6665  -0.00029326965268655
                  1000  -0.0023180354739745
                   228  -0.011499786038565
                 64.71  -0.046826727009787
                 21.06   -0.12846616875047
                 7.495   -0.30126627246289
                 2.797   -0.25563070233011
                0.5215      1.093793361012
 s    1 1.00
                0.1596                   1
 p    3 1.00
                 9.439   0.056979251590039
                 2.002    0.31320721150073
                0.5456    0.76037674173753
 p    1 1.00
                0.1517                   1
 d    1 1.00
                  0.55                   1

6 0
 s    8 1.00
                 11720  0.00070964594651845
                  1759  0.0054672722921914
                 400.8   0.027823118610189
                 113.7    0.10474773971146
                 37.03    0.28292084635691
                 13.27    0.44849523869833
                 5.025    0.27081688521277
                 1.013    0.01545029160744
 s    8 1.00
                 11720  -0.00031444341168873
                  1759  -0.0024821376810179
                 400.8  -0.012316355381583
                 113.7  -0.050538917343672
                 37.03   -0.13938490331632
                 13.27   -0.32507749481778
                 5.025   -0.22984830758785
                 1.013     1.0953793467883
 s    1 1.00
                0.3023                   1
 p    3 1.00
                  17.7   0.062679166281506
                 3.854    0.33353656587936
                 1.046    0.74123964163973
 p    1 1.00
                0.2753                   1
 d    1 1.00
                 1.185                   1

7 0
 s    8 1.00
                 11720  0.00070964594651845
                  1759  0.0054672722921914
                 400.8   0.027823118610189
                 113.7    0.10474773971146
                 37.03    0.28292084635691
                 13.27    0.44849523869833
                 5.025    0.27081688521277
                 1.013    0.01545029160744
 s    8 1.00
                 11720  -0.00031444341168873
                  1759  -0.0024821376810179
                 400.8  -0.012316355381583
                 113.7  -0.050538917343672
                 37.03   -0.13938490331632
                 13.27   -0.32507749481778
                 5.025   -0.22984830758785
                 1.013     1.0953793467883
 s    1 1.00
                0.3023                   1
 p    3 1.00
                  17.7   0.062679166281506
                 3.854    0.33353656587936
                 1.046    0.74123964163973
 p    1 1.00
                0.2753                   1
 d    1 1.00
                 1.185                   1

8 0
 s    8 1.00
                 11720  0.00070964594651845
                  1759  0.0054672722921914
                 400.8   0.027823118610189
                 113.7    0.10474773971146
                 37.03    0.28292084635691
                 13.27    0.44849523869833
                 5.025    0.27081688521277
                 1.013    0.01545029160744
 s    8 1.00
                 11720  -0.00031444341168873
                  1759  -0.0024821376810179
                 400.8  -0.012316355381583
                 113.7  -0.050538917343672
                 37.03   -0.13938490331632
                 13.27   -0.32507749481778
                 5.025   -0.22984830758785
                 1.013     1.0953793467883
 s    1 1.00
                0.3023                   1
 p    3 1.00
                  17.7   0.062679166281506
                 3.854    0.33353656587936
                 1.046    0.74123964163973
 p    1 1.00
                0.2753                   1
 d    1 1.00
                 1.185                   1

9 0
 s    8 1.00
                 11720  0.00070964594651845
                  1759  0.0054672722921914
                 400.8   0.027823118610189
                 113.7    0.10474773971146
                 37.03    0.28292084635691
                 13.27    0.44849523869833
                 5.025    0.27081688521277
                 1.013    0.01545029160744
 s    8 1.00
                 11720  -0.00031444341168873
                  1759  -0.0024821376810179
                 400.8  -0.012316355381583
                 113.7  -0.050538917343672
                 37.03   -0.13938490331632
                 13.27   -0.32507749481778
                 5.025   -0.22984830758785
                 1.013     1.0953793467883
 s    1 1.00
                0.3023                   1
 p    3 1.00
                  17.7   0.062679166281506
                 3.854    0.33353656587936
                 1.046    0.74123964163973
 p    1 1.00
                0.2753                   1
 d    1 1.00
                 1.185                   1

10 0
 s    8 1.00
                  6665  0.00069158396281299
                  1000  0.0053257961529341
                   228   0.027060721042034
                 64.71    0.10165684614077
                 21.06     0.2745748236174
                 7.495    0.44829431892377
                 2.797    0.28490261071525
                0.5215   0.015194859206082
 s    8 1.00
                  6665  -0.00029326965268655
                  1000  -0.0023180354739745
                   228  -0.011499786038565
                 64.71  -0.046826727009787
                 21.06   -0.12846616875047
                 7.495   -0.30126627246289
                 2.797   -0.25563070233011
                0.5215      1.093793361012
 s    1 1.00
                0.1596                   1
 p    3 1.00
                 9.439   0.056979251590039
                 2.002    0.31320721150073
                0.5456    0.76037674173753
 p    1 1.00
                0.1517                   1
 d    1 1.00
                  0.55                   1

11 0
 s    8 1.00
                 11720  0.00070964594651845
                  1759  0.0054672722921914
                 400.8   0.027823118610189
                 113.7    0.10474773971146
                 37.03    0.28292084635691
                 13.27    0.44849523869833
                 5.025    0.27081688521277
                 1.013    0.01545029160744
 s    8 1.00
                 11720  -0.00031444341168873
                  1759  -0.0024821376810179
                 400.8  -0.012316355381583
                 113.7  -0.050538917343672
                 37.03   -0.13938490331632
                 13.27   -0.32507749481778
                 5.025   -0.22984830758785
                 1.013     1.0953793467883
 s    1 1.00
                0.3023                   1
 p    3 1.00
                  17.7   0.062679166281506
                 3.854    0.33353656587936
                 1.046    0.74123964163973
 p    1 1.00
                0.2753                   1
 d    1 1.00
                 1.185                   1

12 0
 s    3 1.00
                 13.01   0.033498726389998
                 1.962    0.23480080117413
                0.4446     0.8136829578829
 s    1 1.00
                 0.122                   1
 p    1 1.00
                 0.727                   1

13 0
 s    3 1.00
                 13.01   0.033498726389998
                 1.962    0.23480080117413
                0.4446     0.8136829578829
 s    1 1.00
                 0.122                   1
 p    1 1.00
                 0.727                   1

14 0
 s    3 1.00
                 13.01   0.033498726389998
                 1.962    0.23480080117413
                0.4446     0.8136829578829
 s    1 1.00
                 0.122                   1
 p    1 1.00
                 0.727                   1

15 0
 s    3 1.00
                 13.01   0.033498726389998
                 1.962    0.23480080117413
                0.4446     0.8136829578829
 s    1 1.00
                 0.122                   1
 p    1 1.00
                 0.727                   1

16 0
 s    8 1.00
                 11720  0.00070964594651845
                  1759  0.0054672722921914
                 400.8   0.027823118610189
                 113.7    0.10474773971146
                 37.03    0.28292084635691
                 13.27    0.44849523869833
                 5.025    0.27081688521277
                 1.013    0.01545029160744
 s    8 1.00
                 11720  -0.00031444341168873
                  1759  -0.0024821376810179
                 400.8  -0.012316355381583
                 113.7  -0.050538917343672
                 37.03   -0.13938490331632
                 13.27   -0.32507749481778
                 5.025   -0.22984830758785
                 1.013     1.0953793467883
 s    1 1.00
                0.3023                   1
 p    3 1.00
                  17.7   0.062679166281506
                 3.854    0.33353656587936
                 1.046    0.74123964163973
 p    1 1.00
                0.2753                   1
 d    1 1.00
                 1.185                   1

17 0
 s    3 1.00
                 13.01   0.033498726389998
                 1.962    0.23480080117413
                0.4446     0.8136829578829
 s    1 1.00
                 0.122                   1
 p    1 1.00
                 0.727                   1

18 0
 s    3 1.00
                 13.01   0.033498726389998
                 1.962    0.23480080117413
                0.4446     0.8136829578829
 s    1 1.00
                 0.122                   1
 p    1 1.00
                 0.727                   1

19 0
 s    3 1.00
                 13.01   0.033498726389998
                 1.962    0.23480080117413
                0.4446     0.8136829578829
 s    1 1.00
                 0.122                   1
 p    1 1.00
                 0.727                   1

20 0
 s    3 1.00
                 13.01   0.033498726389998
                 1.962    0.23480080117413
                0.4446     0.8136829578829
 s    1 1.00
                 0.122                   1
 p    1 1.00
                 0.727                   1

21 0
 s    3 1.00
                 13.01   0.033498726389998
                 1.962    0.23480080117413
                0.4446     0.8136829578829
 s    1 1.00
                 0.122                   1
 p    1 1.00
                 0.727                   1

22 0
 s    3 1.00
                 13.01   0.033498726389998
                 1.962    0.23480080117413
                0.4446     0.8136829578829
 s    1 1.00
                 0.122                   1
 p    1 1.00
                 0.727                   1

23 0
 s    3 1.00
                 13.01   0.033498726389998
                 1.962    0.23480080117413
                0.4446     0.8136829578829
 s    1 1.00
                 0.122                   1
 p    1 1.00
                 0.727                   1

24 0
 s    3 1.00
                 13.01   0.033498726389998
                 1.962    0.23480080117413
                0.4446     0.8136829578829
 s    1 1.00
                 0.122                   1
 p    1 1.00
                 0.727                   1

[5d]
[7f]
[9g]

[MO]
 Sym= A
 Ene=     -20.5892274
 Spin= Alpha
 Occup=    2.00000
   1    -0.00038730163845261
   2    -0.0041727003306017
   3    0.00048744867823708
   4    0.0029498155317813
   5    0.00041483154939274
   6    -0.0021056833002766
   7    0.00010348987103257
   8     0.010018416722742
   9    -0.0012449609020012
  10    -0.00039116821850024
  11    0.00047493982481569
  12    0.00010450323084439
  13    0.00089292352088826
  14    0.00015039332802866
  15    -0.00099841144939804
  16    0.0017043799623018
  17     0.017099473047255
  18    -0.0045699310805874
  19    -0.0098059787997396
  20    -0.0054954375611414
  21    -0.035788261967261
  22    -0.028188738484898
  23    -0.0024427073013325
  24    0.00080696251096415
  25    -0.00087593789202802
  26    0.0011796612359225
  27    -0.0020379772039351
  28     0.002013055781477
  29    -0.0042653478531517
  30    -0.047605413034327
  31    -0.020700517272995
  32         0.05950082804
  33    -0.026922759280593
  34    -0.013354272702568
  35     0.026520996899648
  36    0.0059596905348125
  37    -0.053967804967787
  38    -0.0087517127005979
  39     0.013516320180897
  40    7.9745334117612e-05
  41    -0.0089011570402753
  42    -0.011151044314413
  43    0.0045531063894513
  44    -0.011424065482498
  45     -0.12097891492294
  46     0.016559088113293
  47    -0.0021069195523601
  48    -0.028165726696838
  49    -0.013154061576552
  50     0.019286585376878
  51    -0.025158523955974
  52    -0.001790251429635
  53    0.0030321275486081
  54    -0.0013396060026098
  55    -0.0016182878405917
  56    -0.0018279717001982
  57    -0.0024564016081716
  58    -0.0010813690289083
  59     0.042974880463363
  60    -0.0083007473169228
  61    0.0055497294298143
  62    0.0013685279562399
  63    -0.030631155122583
  64    0.0093796116406401
  65     0.011968907722727
  66    -0.0015474454036803
  67    0.00070474152534958
  68    0.00011385803053886
  69    0.0015370433349396
  70    -0.0013230448945714
  71    0.00048419601459785
  72    0.0010763182211573
  73    -0.0044428988449147
  74    -1.7437818144431e-06
  75    -0.00034945396619293
  76    -2.5959539496756e-05
  77    0.0039720842616933
  78    -0.0016769544358755
  79    -0.0016396435778217
  80    -9.5767334186291e-05
  81    5.4911263003748e-05
  82    -0.00014361587464596
  83    5.2553253661002e-05
  84    -5.2607842521136e-05
  85    0.0014108202654514
  86    0.0047770250638283
  87    -0.0076485131274078
  88    -0.0040102972710258
  89    0.0025424487236812
  90    -0.0018946018399478
  91    0.0035592224006161
  92    0.0016398607438815
  93    0.0068346326614078
  94    0.00029631295578194
  95    -0.00040940070128694
  96    0.00023501609358737
  97    -0.00044618320820461
  98    0.00020731138603303
  99    -0.0051933104397149
 100      0.34207177286534
 101      0.46441464086818
 102     -0.15386570438132
 103      0.35599258933478
 104     -0.21810008990537
 105     -0.12201614363546
 106      0.26876237739495
 107     -0.15297607528484
 108    0.00066833067484198
 109    -0.0043032648802015
 110    0.0096898402618742
 111    0.0024619306532775
 112    0.0091915064992212
 113    0.0010182758271358
 114    -0.0015845085727474
 115    -0.010540667234397
 116    0.0079195082285007
 117    -0.0030128920223515
 118    -0.0038808051731297
 119     0.017786937314297
 120    -0.0035966615905261
 121    0.00048883176413354
 122    -0.00035370324767633
 123    0.00037515423472684
 124    -0.00027881477925853
 125    6.6989647267262e-05
 126    0.00027471520384461
 127    -0.00040015237550026
 128    -0.0012206273802101
 129    0.0046886962208272
 130    0.00073868789200613
 131    9.3165302219818e-05
 132    -0.00091606320420386
 133    0.0043540548955676
 134    -0.0028497969432103
 135    -0.00081386828226769
 136    0.00010246035885598
 137    4.7890996748904e-05
 138    1.3149092548229e-05
 139    0.00014718043399528
 140    -0.00022604568423653
 141    -0.0001183114645998
 142    -0.00032082524436886
 143    0.0013419604903068
 144    0.00059434326277458
 145    -9.7345200107381e-05
 146    -0.00021565726604385
 147    -0.0017543190809094
 148    0.0002474583138947
 149    -0.0012334072677152
 150    -7.7511245447271e-05
 151    -9.7561002116567e-05
 152    -1.8292462088598e-05
 153    7.5960008827323e-05
 154    -2.1100309570391e-05
 155    -0.0043939846491684
 156    -0.0041855977200597
 157    0.00025760706235511
 158    0.0007881575786943
 159    0.00073087422743848
 160    -0.090472285219558
 161    -0.015785551923594
 162    -0.010024519817618
 163     0.012644238140768
 164    0.0008850746182307
 165    -8.4976850182078e-05
 166    -0.0047289236079353
 167    -0.00036222062804801
 168    4.3062072741195e-05
 169    -0.0001130037095736
 170    0.0016356064255263
 171     0.025722697311642
 172    0.00088341328851455
 173    0.00064727891816066
 174    0.0024417534295583
 175    -0.00021323736608603
 176    0.0010693742773767
 177     0.004210510980654
 178    -0.0031521545386252
 179    -0.00052262698801344
 180    -0.0013131063732234
 181    -0.0042758460818198
 182    -0.00050157913840168
 183    7.1351741722405e-08
 184    2.0172282084364e-05
 185    2.1550331124804e-05
 186    2.2600126841229e-06
 187    -4.4707165678387e-05
 188    -6.67385248728e-05
 189    -0.00069645132693768
 190    -0.0022460366611437
 191    1.8371481690615e-05
 192    0.00013016871091322
 193    6.2706230375583e-05
 194    -0.0028857532312568
 195    0.0036149819964277
 196    0.00012556084984438
 197    -0.00024566588960019
 198    -0.00014431236568079
 199    -0.000548197362978
 200     0.025501350990947
 201    -0.00013126235589813
 202    -0.00056287153060246
 203    -0.00037647209114353
 204     0.026451081261185
 205     0.037853822649149
 206    0.0011111495514601
 207    -0.00094841833416388
 208     0.001548635138262
 209    -0.0062883721650701
 210     0.016088240128002
 211    -0.00054252620270483
 212    0.00030774320701159
 213    0.00068864056532205
 214    -0.0046853508801453
 215    -0.00017287810987961
 216    4.384202514411e-05
 217    -0.00021913687261919
 218    -0.00017130159840564
 219    -0.00061998131275126
 220    -0.0038468756710231
 221    4.3861058874713e-05
 222    0.00038736385840221
 223    -0.00028200767141872
 224    0.00064878988113751
 225    0.0021078079874242
 226    -0.00019631593742069
 227    -1.7324904296327e-05
 228    0.0003900207038751
