[Molden Format]
made by pyscf v[2.1.0]
[Atoms] (AU)
C   1   6     2.32946917320360    -0.63344186613258     2.37168943427863
C   2   6    -0.29669267073509     0.30039086476086     3.22269546913239
C   3   6    -2.28836574026819    -0.45088865332122     1.27613394164491
C   4   6    -1.50258360260379     0.48150977544368    -1.34195877174189
C   5   6     1.17077037184366    -0.47613539434541    -1.98531603085006
O   6   8     2.90615122545875     0.36947547242271    -0.06380660259594
O   7   8    -1.02480036707776    -0.78170410868758     5.58840958940515
O   8   8    -4.71990091118567     0.61286652808832     1.81907682367207
O   9   8    -3.21856263809797    -0.39246777018029    -3.24986406162526
C   10   6     2.14873576665020     0.54311106765225    -4.52137384344336
O   11   8     0.97527064535291    -0.64120108160005    -6.63217335814292
H   12   1     0.34900595904142    -0.48214283369541     6.76077111064570
H   13   1    -5.19719092819319     0.02690592056156     3.48444332437202
H   14   1    -0.83535721281623    -0.49952075513691    -6.37469817367093
H   15   1    -4.90002393620084     0.08874342853570    -2.71063260170675
O   16   8     4.22615893853768     0.10859122202201     4.07505454789134
H   17   1     4.38166639105427     1.93178575891951     3.94362220620171
H   18   1     2.36505838530753    -2.71537014510103     2.34202262384909
H   19   1    -0.22188597236806     2.38358526023277     3.34538215831753
H   20   1    -2.40897751016855    -2.53158672058258     1.22868291865708
H   21   1    -1.45404220764209     2.56502731408288    -1.31752650267738
H   22   1     1.14953551938192    -2.55944317338479    -2.06041941621865
H   23   1     1.89192576577406     2.61534694132780    -4.54974430175146
H   24   1     4.17463555575142     0.13656105839169    -4.65046670419078
[GTO]
1 0
 s    8 1.00
                  6665  0.00069158396281299
                  1000  0.0053257961529341
                   228   0.027060721042034
                 64.71    0.10165684614077
                 21.06     0.2745748236174
                 7.495    0.44829431892377
                 2.797    0.28490261071525
                0.5215   0.015194859206082
 s    8 1.00
                  6665  -0.00029326965268655
                  1000  -0.0023180354739745
                   228  -0.011499786038565
                 64.71  -0.046826727009787
                 21.06   -0.12846616875047
                 7.495   -0.30126627246289
                 2.797   -0.25563070233011
                0.5215      1.093793361012
 s    1 1.00
                0.1596                   1
 p    3 1.00
                 9.439   0.056979251590039
                 2.002    0.31320721150073
                0.5456    0.76037674173753
 p    1 1.00
                0.1517                   1
 d    1 1.00
                  0.55                   1

2 0
 s    8 1.00
                  6665  0.00069158396281299
                  1000  0.0053257961529341
                   228   0.027060721042034
                 64.71    0.10165684614077
                 21.06     0.2745748236174
                 7.495    0.44829431892377
                 2.797    0.28490261071525
                0.5215   0.015194859206082
 s    8 1.00
                  6665  -0.00029326965268655
                  1000  -0.0023180354739745
                   228  -0.011499786038565
                 64.71  -0.046826727009787
                 21.06   -0.12846616875047
                 7.495   -0.30126627246289
                 2.797   -0.25563070233011
                0.5215      1.093793361012
 s    1 1.00
                0.1596                   1
 p    3 1.00
                 9.439   0.056979251590039
                 2.002    0.31320721150073
                0.5456    0.76037674173753
 p    1 1.00
                0.1517                   1
 d    1 1.00
                  0.55                   1

3 0
 s    8 1.00
                  6665  0.00069158396281299
                  1000  0.0053257961529341
                   228   0.027060721042034
                 64.71    0.10165684614077
                 21.06     0.2745748236174
                 7.495    0.44829431892377
                 2.797    0.28490261071525
                0.5215   0.015194859206082
 s    8 1.00
                  6665  -0.00029326965268655
                  1000  -0.0023180354739745
                   228  -0.011499786038565
                 64.71  -0.046826727009787
                 21.06   -0.12846616875047
                 7.495   -0.30126627246289
                 2.797   -0.25563070233011
                0.5215      1.093793361012
 s    1 1.00
                0.1596                   1
 p    3 1.00
                 9.439   0.056979251590039
                 2.002    0.31320721150073
                0.5456    0.76037674173753
 p    1 1.00
                0.1517                   1
 d    1 1.00
                  0.55                   1

4 0
 s    8 1.00
                  6665  0.00069158396281299
                  1000  0.0053257961529341
                   228   0.027060721042034
                 64.71    0.10165684614077
                 21.06     0.2745748236174
                 7.495    0.44829431892377
                 2.797    0.28490261071525
                0.5215   0.015194859206082
 s    8 1.00
                  6665  -0.00029326965268655
                  1000  -0.0023180354739745
                   228  -0.011499786038565
                 64.71  -0.046826727009787
                 21.06   -0.12846616875047
                 7.495   -0.30126627246289
                 2.797   -0.25563070233011
                0.5215      1.093793361012
 s    1 1.00
                0.1596                   1
 p    3 1.00
                 9.439   0.056979251590039
                 2.002    0.31320721150073
                0.5456    0.76037674173753
 p    1 1.00
                0.1517                   1
 d    1 1.00
                  0.55                   1

5 0
 s    8 1.00
                  6665  0.00069158396281299
                  1000  0.0053257961529341
                   228   0.027060721042034
                 64.71    0.10165684614077
                 21.06     0.2745748236174
                 7.495    0.44829431892377
                 2.797    0.28490261071525
                0.5215   0.015194859206082
 s    8 1.00
                  6665  -0.00029326965268655
                  1000  -0.0023180354739745
                   228  -0.011499786038565
                 64.71  -0.046826727009787
                 21.06   -0.12846616875047
                 7.495   -0.30126627246289
                 2.797   -0.25563070233011
                0.5215      1.093793361012
 s    1 1.00
                0.1596                   1
 p    3 1.00
                 9.439   0.056979251590039
                 2.002    0.31320721150073
                0.5456    0.76037674173753
 p    1 1.00
                0.1517                   1
 d    1 1.00
                  0.55                   1

6 0
 s    8 1.00
                 11720  0.00070964594651845
                  1759  0.0054672722921914
                 400.8   0.027823118610189
                 113.7    0.10474773971146
                 37.03    0.28292084635691
                 13.27    0.44849523869833
                 5.025    0.27081688521277
                 1.013    0.01545029160744
 s    8 1.00
                 11720  -0.00031444341168873
                  1759  -0.0024821376810179
                 400.8  -0.012316355381583
                 113.7  -0.050538917343672
                 37.03   -0.13938490331632
                 13.27   -0.32507749481778
                 5.025   -0.22984830758785
                 1.013     1.0953793467883
 s    1 1.00
                0.3023                   1
 p    3 1.00
                  17.7   0.062679166281506
                 3.854    0.33353656587936
                 1.046    0.74123964163973
 p    1 1.00
                0.2753                   1
 d    1 1.00
                 1.185                   1

7 0
 s    8 1.00
                 11720  0.00070964594651845
                  1759  0.0054672722921914
                 400.8   0.027823118610189
                 113.7    0.10474773971146
                 37.03    0.28292084635691
                 13.27    0.44849523869833
                 5.025    0.27081688521277
                 1.013    0.01545029160744
 s    8 1.00
                 11720  -0.00031444341168873
                  1759  -0.0024821376810179
                 400.8  -0.012316355381583
                 113.7  -0.050538917343672
                 37.03   -0.13938490331632
                 13.27   -0.32507749481778
                 5.025   -0.22984830758785
                 1.013     1.0953793467883
 s    1 1.00
                0.3023                   1
 p    3 1.00
                  17.7   0.062679166281506
                 3.854    0.33353656587936
                 1.046    0.74123964163973
 p    1 1.00
                0.2753                   1
 d    1 1.00
                 1.185                   1

8 0
 s    8 1.00
                 11720  0.00070964594651845
                  1759  0.0054672722921914
                 400.8   0.027823118610189
                 113.7    0.10474773971146
                 37.03    0.28292084635691
                 13.27    0.44849523869833
                 5.025    0.27081688521277
                 1.013    0.01545029160744
 s    8 1.00
                 11720  -0.00031444341168873
                  1759  -0.0024821376810179
                 400.8  -0.012316355381583
                 113.7  -0.050538917343672
                 37.03   -0.13938490331632
                 13.27   -0.32507749481778
                 5.025   -0.22984830758785
                 1.013     1.0953793467883
 s    1 1.00
                0.3023                   1
 p    3 1.00
                  17.7   0.062679166281506
                 3.854    0.33353656587936
                 1.046    0.74123964163973
 p    1 1.00
                0.2753                   1
 d    1 1.00
                 1.185                   1

9 0
 s    8 1.00
                 11720  0.00070964594651845
                  1759  0.0054672722921914
                 400.8   0.027823118610189
                 113.7    0.10474773971146
                 37.03    0.28292084635691
                 13.27    0.44849523869833
                 5.025    0.27081688521277
                 1.013    0.01545029160744
 s    8 1.00
                 11720  -0.00031444341168873
                  1759  -0.0024821376810179
                 400.8  -0.012316355381583
                 113.7  -0.050538917343672
                 37.03   -0.13938490331632
                 13.27   -0.32507749481778
                 5.025   -0.22984830758785
                 1.013     1.0953793467883
 s    1 1.00
                0.3023                   1
 p    3 1.00
                  17.7   0.062679166281506
                 3.854    0.33353656587936
                 1.046    0.74123964163973
 p    1 1.00
                0.2753                   1
 d    1 1.00
                 1.185                   1

10 0
 s    8 1.00
                  6665  0.00069158396281299
                  1000  0.0053257961529341
                   228   0.027060721042034
                 64.71    0.10165684614077
                 21.06     0.2745748236174
                 7.495    0.44829431892377
                 2.797    0.28490261071525
                0.5215   0.015194859206082
 s    8 1.00
                  6665  -0.00029326965268655
                  1000  -0.0023180354739745
                   228  -0.011499786038565
                 64.71  -0.046826727009787
                 21.06   -0.12846616875047
                 7.495   -0.30126627246289
                 2.797   -0.25563070233011
                0.5215      1.093793361012
 s    1 1.00
                0.1596                   1
 p    3 1.00
                 9.439   0.056979251590039
                 2.002    0.31320721150073
                0.5456    0.76037674173753
 p    1 1.00
                0.1517                   1
 d    1 1.00
                  0.55                   1

11 0
 s    8 1.00
                 11720  0.00070964594651845
                  1759  0.0054672722921914
                 400.8   0.027823118610189
                 113.7    0.10474773971146
                 37.03    0.28292084635691
                 13.27    0.44849523869833
                 5.025    0.27081688521277
                 1.013    0.01545029160744
 s    8 1.00
                 11720  -0.00031444341168873
                  1759  -0.0024821376810179
                 400.8  -0.012316355381583
                 113.7  -0.050538917343672
                 37.03   -0.13938490331632
                 13.27   -0.32507749481778
                 5.025   -0.22984830758785
                 1.013     1.0953793467883
 s    1 1.00
                0.3023                   1
 p    3 1.00
                  17.7   0.062679166281506
                 3.854    0.33353656587936
                 1.046    0.74123964163973
 p    1 1.00
                0.2753                   1
 d    1 1.00
                 1.185                   1

12 0
 s    3 1.00
                 13.01   0.033498726389998
                 1.962    0.23480080117413
                0.4446     0.8136829578829
 s    1 1.00
                 0.122                   1
 p    1 1.00
                 0.727                   1

13 0
 s    3 1.00
                 13.01   0.033498726389998
                 1.962    0.23480080117413
                0.4446     0.8136829578829
 s    1 1.00
                 0.122                   1
 p    1 1.00
                 0.727                   1

14 0
 s    3 1.00
                 13.01   0.033498726389998
                 1.962    0.23480080117413
                0.4446     0.8136829578829
 s    1 1.00
                 0.122                   1
 p    1 1.00
                 0.727                   1

15 0
 s    3 1.00
                 13.01   0.033498726389998
                 1.962    0.23480080117413
                0.4446     0.8136829578829
 s    1 1.00
                 0.122                   1
 p    1 1.00
                 0.727                   1

16 0
 s    8 1.00
                 11720  0.00070964594651845
                  1759  0.0054672722921914
                 400.8   0.027823118610189
                 113.7    0.10474773971146
                 37.03    0.28292084635691
                 13.27    0.44849523869833
                 5.025    0.27081688521277
                 1.013    0.01545029160744
 s    8 1.00
                 11720  -0.00031444341168873
                  1759  -0.0024821376810179
                 400.8  -0.012316355381583
                 113.7  -0.050538917343672
                 37.03   -0.13938490331632
                 13.27   -0.32507749481778
                 5.025   -0.22984830758785
                 1.013     1.0953793467883
 s    1 1.00
                0.3023                   1
 p    3 1.00
                  17.7   0.062679166281506
                 3.854    0.33353656587936
                 1.046    0.74123964163973
 p    1 1.00
                0.2753                   1
 d    1 1.00
                 1.185                   1

17 0
 s    3 1.00
                 13.01   0.033498726389998
                 1.962    0.23480080117413
                0.4446     0.8136829578829
 s    1 1.00
                 0.122                   1
 p    1 1.00
                 0.727                   1

18 0
 s    3 1.00
                 13.01   0.033498726389998
                 1.962    0.23480080117413
                0.4446     0.8136829578829
 s    1 1.00
                 0.122                   1
 p    1 1.00
                 0.727                   1

19 0
 s    3 1.00
                 13.01   0.033498726389998
                 1.962    0.23480080117413
                0.4446     0.8136829578829
 s    1 1.00
                 0.122                   1
 p    1 1.00
                 0.727                   1

20 0
 s    3 1.00
                 13.01   0.033498726389998
                 1.962    0.23480080117413
                0.4446     0.8136829578829
 s    1 1.00
                 0.122                   1
 p    1 1.00
                 0.727                   1

21 0
 s    3 1.00
                 13.01   0.033498726389998
                 1.962    0.23480080117413
                0.4446     0.8136829578829
 s    1 1.00
                 0.122                   1
 p    1 1.00
                 0.727                   1

22 0
 s    3 1.00
                 13.01   0.033498726389998
                 1.962    0.23480080117413
                0.4446     0.8136829578829
 s    1 1.00
                 0.122                   1
 p    1 1.00
                 0.727                   1

23 0
 s    3 1.00
                 13.01   0.033498726389998
                 1.962    0.23480080117413
                0.4446     0.8136829578829
 s    1 1.00
                 0.122                   1
 p    1 1.00
                 0.727                   1

24 0
 s    3 1.00
                 13.01   0.033498726389998
                 1.962    0.23480080117413
                0.4446     0.8136829578829
 s    1 1.00
                 0.122                   1
 p    1 1.00
                 0.727                   1

[5d]
[7f]
[9g]

[MO]
 Sym= A
 Ene=     -20.5892274
 Spin= Alpha
 Occup=    2.00000
   1    -0.0053616556339936
   2      0.22098705342612
   3      0.18620936064116
   4     -0.33469179024658
   5       0.1418724198655
   6      0.10889187595923
   7     -0.10880005013051
   8     0.087379751537326
   9     0.015226872140313
  10    -0.011815166769078
  11      -0.0136251864525
  12    0.0066886486910502
  13     0.022296920593054
  14    -0.018345150265198
  15    -0.0097082837474509
  16      0.20144445002191
  17      0.20682474235496
  18      0.34015606853218
  19     -0.13312381181878
  20    -0.089106040294162
  21      0.12433914207201
  22    -0.099072230180389
  23    -0.031260851532454
  24    -0.010492675191676
  25    -0.014884806194997
  26    0.0066163787471339
  27     0.022477606901493
  28    -0.018308843854591
  29    -0.00011709355316793
  30    -0.021157802975409
  31    -0.066139066802745
  32    -0.0082162611249201
  33    -0.015196923038683
  34    -0.024080790430145
  35    -0.027152919517863
  36    -0.0032867294266066
  37    -0.035717156151425
  38    -0.0082735951532102
  39    0.0017747573381679
  40    -0.0045347275812205
  41     0.011083554666738
  42    -0.0033288435511004
  43    -0.00013862124447949
  44    -0.0019494530349327
  45      0.01224502975731
  46    -0.00089741083382604
  47     0.003914730604508
  48    -0.0078162579572041
  49    0.0061096088282976
  50    -0.0035424624993528
  51    -0.0098228172199272
  52    -0.0012008390714266
  53    -0.00076163588659206
  54    -0.00084677101645459
  55    -0.00027717687694327
  56    0.00029460031781398
  57     0.001632864429576
  58    0.00063998297089799
  59    -0.030863349013823
  60    0.0033813861894933
  61    -0.0027688853709464
  62    -0.0061273082195477
  63    0.0072845815269719
  64    -0.013385618581437
  65    -0.012602876432985
  66    -0.0012191552300103
  67    -0.0012814279610898
  68    -0.00044729742294509
  69    0.00056801648052217
  70    -2.9200736855001e-05
  71    0.00051430764485926
  72    -0.0078937799236921
  73    -0.040635966273788
  74     0.015266761688056
  75    0.0068220047086339
  76    -0.021782115944715
  77     0.029240710982257
  78    -0.0059985826042271
  79    -0.045830985492163
  80     0.002298520982543
  81    -0.0051350751394791
  82    0.0016770984810182
  83    0.0023096628211975
  84    0.0011650977447386
  85    0.00037544410844502
  86    -0.0065945026303568
  87    -0.028107840781993
  88    -0.013170722115698
  89    -0.0058512230255829
  90     0.017605243551936
  91    -0.034330178952656
  92    0.0093207615053786
  93     0.038495744182549
  94    0.00093736924919523
  95    -0.0058668977013438
  96    0.0013705996856495
  97    0.0023216299525668
  98    0.0013717475791816
  99    2.0877067808368e-05
 100    0.0065412686945025
 101     0.016265911841718
 102     0.018356007322733
 103    -0.0055189477925373
 104    -0.0012401704760226
 105      0.02771092554451
 106    -0.0012916726620517
 107    0.0051580923495268
 108    0.00025688071379742
 109    -4.7600929141416e-05
 110    -0.0001574636945213
 111    -0.00048441016764501
 112    -9.3343276090654e-05
 113    0.00051344452875943
 114    0.0012984030993842
 115    -0.0049586123206007
 116    0.00064638221968058
 117    -0.0005028129840706
 118    0.00068838459677829
 119    -0.0028350928960932
 120     -0.00016007802034
 121    -0.0023641800861947
 122    -0.000126226275386
 123    5.1983747395149e-05
 124    0.00017963159176616
 125    -1.7389571041585e-05
 126    0.00018239560154878
 127    -0.00014420196610749
 128    -0.0010383491003772
 129    -0.0039230313691284
 130    -0.001571058604199
 131    1.5018569653948e-05
 132    0.00064261326880851
 133    -0.0041281395556306
 134    0.0048652352144671
 135    0.0055296626442925
 136    0.00066567403275394
 137    -2.6061457291159e-05
 138    -5.6980308807296e-05
 139    -3.2160353716301e-05
 140    4.9618598797837e-05
 141    -0.00015364150521095
 142    0.00012328536407642
 143    0.0031270155623449
 144    0.0005263149020189
 145    0.00018746243433329
 146    0.00092409749903152
 147    0.0017189375708945
 148    0.00070139120029401
 149    0.00030784427174675
 150    -3.5441257792019e-06
 151    -3.2081512954557e-05
 152    2.6178067837285e-05
 153    -8.164259881336e-05
 154    -1.3118781954439e-05
 155    -0.014177307320131
 156    -0.017547989320818
 157    -0.0014390837232668
 158    8.7358082225367e-05
 159    0.0011135381816818
 160    -0.00053210240765181
 161     0.012139394609165
 162    0.0021012194285646
 163    -0.00060547450205774
 164    -0.00010184760420299
 165    -0.0001438025045608
 166    -0.0012028314547588
 167    7.6876906860584e-07
 168    -8.8188228599035e-05
 169    -0.0001594528756259
 170    -0.0001880574723424
 171    -0.0040933785526287
 172    -7.1295488393797e-05
 173    -1.1012195177769e-05
 174    -9.0365672459674e-05
 175    -0.00047036119145531
 176    -0.0095001484348992
 177    -0.023570701318519
 178     0.022958860968986
 179    0.00022381266815148
 180     0.013869526275468
 181     0.049313817692367
 182     -0.00837275836526
 183    0.0081739899781942
 184    -0.0033665201945763
 185    0.0014604620294046
 186    -0.0021442875757539
 187    0.0053389679911639
 188    -0.00044555836856896
 189    -0.011048264302195
 190    -0.013261483723438
 191    0.0028749086773871
 192    -6.3884601462012e-05
 193     0.001120617072241
 194    -0.031160108675713
 195     -0.04851107025447
 196    -0.0059674343790334
 197    0.0041035342629412
 198    0.0031024101138777
 199     -0.02284857511932
 200    -0.044835560048786
 201    0.0065705727336562
 202    -0.0050570402194592
 203    -0.00078685409918358
 204    -0.0056015245560087
 205    -0.011042876446108
 206    -0.0017604130798484
 207    -0.00059232106905496
 208    -0.0013992303522836
 209    0.0042324408711686
 210    0.0023225336425066
 211    -0.00016719712566074
 212    0.00024894437967803
 213    -5.8890015977599e-05
 214    -0.00064238413896855
 215    -0.0043568845160831
 216    7.3055037654548e-05
 217    -2.9797844161143e-05
 218    0.00017947470397383
 219    -0.00040922173166383
 220    -0.0013676139073806
 221    -4.2204720959727e-05
 222    -6.5057990149934e-05
 223    -0.00011158922480167
 224    -0.0020650335975041
 225    0.0069757429012199
 226    -0.00027755996713528
 227    -9.8906799418996e-05
 228    0.00044626390011014
