[Molden Format]
made by pyscf v[2.1.0]
[Atoms] (AU)
C   1   6     2.32946917320360    -0.63344186613258     2.37168943427863
C   2   6    -0.29669267073509     0.30039086476086     3.22269546913239
C   3   6    -2.28836574026819    -0.45088865332122     1.27613394164491
C   4   6    -1.50258360260379     0.48150977544368    -1.34195877174189
C   5   6     1.17077037184366    -0.47613539434541    -1.98531603085006
O   6   8     2.90615122545875     0.36947547242271    -0.06380660259594
O   7   8    -1.02480036707776    -0.78170410868758     5.58840958940515
O   8   8    -4.71990091118567     0.61286652808832     1.81907682367207
O   9   8    -3.21856263809797    -0.39246777018029    -3.24986406162526
C   10   6     2.14873576665020     0.54311106765225    -4.52137384344336
O   11   8     0.97527064535291    -0.64120108160005    -6.63217335814292
H   12   1     0.34900595904142    -0.48214283369541     6.76077111064570
H   13   1    -5.19719092819319     0.02690592056156     3.48444332437202
H   14   1    -0.83535721281623    -0.49952075513691    -6.37469817367093
H   15   1    -4.90002393620084     0.08874342853570    -2.71063260170675
O   16   8     4.22615893853768     0.10859122202201     4.07505454789134
H   17   1     4.38166639105427     1.93178575891951     3.94362220620171
H   18   1     2.36505838530753    -2.71537014510103     2.34202262384909
H   19   1    -0.22188597236806     2.38358526023277     3.34538215831753
H   20   1    -2.40897751016855    -2.53158672058258     1.22868291865708
H   21   1    -1.45404220764209     2.56502731408288    -1.31752650267738
H   22   1     1.14953551938192    -2.55944317338479    -2.06041941621865
H   23   1     1.89192576577406     2.61534694132780    -4.54974430175146
H   24   1     4.17463555575142     0.13656105839169    -4.65046670419078
[GTO]
1 0
 s    8 1.00
                  6665  0.00069158396281299
                  1000  0.0053257961529341
                   228   0.027060721042034
                 64.71    0.10165684614077
                 21.06     0.2745748236174
                 7.495    0.44829431892377
                 2.797    0.28490261071525
                0.5215   0.015194859206082
 s    8 1.00
                  6665  -0.00029326965268655
                  1000  -0.0023180354739745
                   228  -0.011499786038565
                 64.71  -0.046826727009787
                 21.06   -0.12846616875047
                 7.495   -0.30126627246289
                 2.797   -0.25563070233011
                0.5215      1.093793361012
 s    1 1.00
                0.1596                   1
 p    3 1.00
                 9.439   0.056979251590039
                 2.002    0.31320721150073
                0.5456    0.76037674173753
 p    1 1.00
                0.1517                   1
 d    1 1.00
                  0.55                   1

2 0
 s    8 1.00
                  6665  0.00069158396281299
                  1000  0.0053257961529341
                   228   0.027060721042034
                 64.71    0.10165684614077
                 21.06     0.2745748236174
                 7.495    0.44829431892377
                 2.797    0.28490261071525
                0.5215   0.015194859206082
 s    8 1.00
                  6665  -0.00029326965268655
                  1000  -0.0023180354739745
                   228  -0.011499786038565
                 64.71  -0.046826727009787
                 21.06   -0.12846616875047
                 7.495   -0.30126627246289
                 2.797   -0.25563070233011
                0.5215      1.093793361012
 s    1 1.00
                0.1596                   1
 p    3 1.00
                 9.439   0.056979251590039
                 2.002    0.31320721150073
                0.5456    0.76037674173753
 p    1 1.00
                0.1517                   1
 d    1 1.00
                  0.55                   1

3 0
 s    8 1.00
                  6665  0.00069158396281299
                  1000  0.0053257961529341
                   228   0.027060721042034
                 64.71    0.10165684614077
                 21.06     0.2745748236174
                 7.495    0.44829431892377
                 2.797    0.28490261071525
                0.5215   0.015194859206082
 s    8 1.00
                  6665  -0.00029326965268655
                  1000  -0.0023180354739745
                   228  -0.011499786038565
                 64.71  -0.046826727009787
                 21.06   -0.12846616875047
                 7.495   -0.30126627246289
                 2.797   -0.25563070233011
                0.5215      1.093793361012
 s    1 1.00
                0.1596                   1
 p    3 1.00
                 9.439   0.056979251590039
                 2.002    0.31320721150073
                0.5456    0.76037674173753
 p    1 1.00
                0.1517                   1
 d    1 1.00
                  0.55                   1

4 0
 s    8 1.00
                  6665  0.00069158396281299
                  1000  0.0053257961529341
                   228   0.027060721042034
                 64.71    0.10165684614077
                 21.06     0.2745748236174
                 7.495    0.44829431892377
                 2.797    0.28490261071525
                0.5215   0.015194859206082
 s    8 1.00
                  6665  -0.00029326965268655
                  1000  -0.0023180354739745
                   228  -0.011499786038565
                 64.71  -0.046826727009787
                 21.06   -0.12846616875047
                 7.495   -0.30126627246289
                 2.797   -0.25563070233011
                0.5215      1.093793361012
 s    1 1.00
                0.1596                   1
 p    3 1.00
                 9.439   0.056979251590039
                 2.002    0.31320721150073
                0.5456    0.76037674173753
 p    1 1.00
                0.1517                   1
 d    1 1.00
                  0.55                   1

5 0
 s    8 1.00
                  6665  0.00069158396281299
                  1000  0.0053257961529341
                   228   0.027060721042034
                 64.71    0.10165684614077
                 21.06     0.2745748236174
                 7.495    0.44829431892377
                 2.797    0.28490261071525
                0.5215   0.015194859206082
 s    8 1.00
                  6665  -0.00029326965268655
                  1000  -0.0023180354739745
                   228  -0.011499786038565
                 64.71  -0.046826727009787
                 21.06   -0.12846616875047
                 7.495   -0.30126627246289
                 2.797   -0.25563070233011
                0.5215      1.093793361012
 s    1 1.00
                0.1596                   1
 p    3 1.00
                 9.439   0.056979251590039
                 2.002    0.31320721150073
                0.5456    0.76037674173753
 p    1 1.00
                0.1517                   1
 d    1 1.00
                  0.55                   1

6 0
 s    8 1.00
                 11720  0.00070964594651845
                  1759  0.0054672722921914
                 400.8   0.027823118610189
                 113.7    0.10474773971146
                 37.03    0.28292084635691
                 13.27    0.44849523869833
                 5.025    0.27081688521277
                 1.013    0.01545029160744
 s    8 1.00
                 11720  -0.00031444341168873
                  1759  -0.0024821376810179
                 400.8  -0.012316355381583
                 113.7  -0.050538917343672
                 37.03   -0.13938490331632
                 13.27   -0.32507749481778
                 5.025   -0.22984830758785
                 1.013     1.0953793467883
 s    1 1.00
                0.3023                   1
 p    3 1.00
                  17.7   0.062679166281506
                 3.854    0.33353656587936
                 1.046    0.74123964163973
 p    1 1.00
                0.2753                   1
 d    1 1.00
                 1.185                   1

7 0
 s    8 1.00
                 11720  0.00070964594651845
                  1759  0.0054672722921914
                 400.8   0.027823118610189
                 113.7    0.10474773971146
                 37.03    0.28292084635691
                 13.27    0.44849523869833
                 5.025    0.27081688521277
                 1.013    0.01545029160744
 s    8 1.00
                 11720  -0.00031444341168873
                  1759  -0.0024821376810179
                 400.8  -0.012316355381583
                 113.7  -0.050538917343672
                 37.03   -0.13938490331632
                 13.27   -0.32507749481778
                 5.025   -0.22984830758785
                 1.013     1.0953793467883
 s    1 1.00
                0.3023                   1
 p    3 1.00
                  17.7   0.062679166281506
                 3.854    0.33353656587936
                 1.046    0.74123964163973
 p    1 1.00
                0.2753                   1
 d    1 1.00
                 1.185                   1

8 0
 s    8 1.00
                 11720  0.00070964594651845
                  1759  0.0054672722921914
                 400.8   0.027823118610189
                 113.7    0.10474773971146
                 37.03    0.28292084635691
                 13.27    0.44849523869833
                 5.025    0.27081688521277
                 1.013    0.01545029160744
 s    8 1.00
                 11720  -0.00031444341168873
                  1759  -0.0024821376810179
                 400.8  -0.012316355381583
                 113.7  -0.050538917343672
                 37.03   -0.13938490331632
                 13.27   -0.32507749481778
                 5.025   -0.22984830758785
                 1.013     1.0953793467883
 s    1 1.00
                0.3023                   1
 p    3 1.00
                  17.7   0.062679166281506
                 3.854    0.33353656587936
                 1.046    0.74123964163973
 p    1 1.00
                0.2753                   1
 d    1 1.00
                 1.185                   1

9 0
 s    8 1.00
                 11720  0.00070964594651845
                  1759  0.0054672722921914
                 400.8   0.027823118610189
                 113.7    0.10474773971146
                 37.03    0.28292084635691
                 13.27    0.44849523869833
                 5.025    0.27081688521277
                 1.013    0.01545029160744
 s    8 1.00
                 11720  -0.00031444341168873
                  1759  -0.0024821376810179
                 400.8  -0.012316355381583
                 113.7  -0.050538917343672
                 37.03   -0.13938490331632
                 13.27   -0.32507749481778
                 5.025   -0.22984830758785
                 1.013     1.0953793467883
 s    1 1.00
                0.3023                   1
 p    3 1.00
                  17.7   0.062679166281506
                 3.854    0.33353656587936
                 1.046    0.74123964163973
 p    1 1.00
                0.2753                   1
 d    1 1.00
                 1.185                   1

10 0
 s    8 1.00
                  6665  0.00069158396281299
                  1000  0.0053257961529341
                   228   0.027060721042034
                 64.71    0.10165684614077
                 21.06     0.2745748236174
                 7.495    0.44829431892377
                 2.797    0.28490261071525
                0.5215   0.015194859206082
 s    8 1.00
                  6665  -0.00029326965268655
                  1000  -0.0023180354739745
                   228  -0.011499786038565
                 64.71  -0.046826727009787
                 21.06   -0.12846616875047
                 7.495   -0.30126627246289
                 2.797   -0.25563070233011
                0.5215      1.093793361012
 s    1 1.00
                0.1596                   1
 p    3 1.00
                 9.439   0.056979251590039
                 2.002    0.31320721150073
                0.5456    0.76037674173753
 p    1 1.00
                0.1517                   1
 d    1 1.00
                  0.55                   1

11 0
 s    8 1.00
                 11720  0.00070964594651845
                  1759  0.0054672722921914
                 400.8   0.027823118610189
                 113.7    0.10474773971146
                 37.03    0.28292084635691
                 13.27    0.44849523869833
                 5.025    0.27081688521277
                 1.013    0.01545029160744
 s    8 1.00
                 11720  -0.00031444341168873
                  1759  -0.0024821376810179
                 400.8  -0.012316355381583
                 113.7  -0.050538917343672
                 37.03   -0.13938490331632
                 13.27   -0.32507749481778
                 5.025   -0.22984830758785
                 1.013     1.0953793467883
 s    1 1.00
                0.3023                   1
 p    3 1.00
                  17.7   0.062679166281506
                 3.854    0.33353656587936
                 1.046    0.74123964163973
 p    1 1.00
                0.2753                   1
 d    1 1.00
                 1.185                   1

12 0
 s    3 1.00
                 13.01   0.033498726389998
                 1.962    0.23480080117413
                0.4446     0.8136829578829
 s    1 1.00
                 0.122                   1
 p    1 1.00
                 0.727                   1

13 0
 s    3 1.00
                 13.01   0.033498726389998
                 1.962    0.23480080117413
                0.4446     0.8136829578829
 s    1 1.00
                 0.122                   1
 p    1 1.00
                 0.727                   1

14 0
 s    3 1.00
                 13.01   0.033498726389998
                 1.962    0.23480080117413
                0.4446     0.8136829578829
 s    1 1.00
                 0.122                   1
 p    1 1.00
                 0.727                   1

15 0
 s    3 1.00
                 13.01   0.033498726389998
                 1.962    0.23480080117413
                0.4446     0.8136829578829
 s    1 1.00
                 0.122                   1
 p    1 1.00
                 0.727                   1

16 0
 s    8 1.00
                 11720  0.00070964594651845
                  1759  0.0054672722921914
                 400.8   0.027823118610189
                 113.7    0.10474773971146
                 37.03    0.28292084635691
                 13.27    0.44849523869833
                 5.025    0.27081688521277
                 1.013    0.01545029160744
 s    8 1.00
                 11720  -0.00031444341168873
                  1759  -0.0024821376810179
                 400.8  -0.012316355381583
                 113.7  -0.050538917343672
                 37.03   -0.13938490331632
                 13.27   -0.32507749481778
                 5.025   -0.22984830758785
                 1.013     1.0953793467883
 s    1 1.00
                0.3023                   1
 p    3 1.00
                  17.7   0.062679166281506
                 3.854    0.33353656587936
                 1.046    0.74123964163973
 p    1 1.00
                0.2753                   1
 d    1 1.00
                 1.185                   1

17 0
 s    3 1.00
                 13.01   0.033498726389998
                 1.962    0.23480080117413
                0.4446     0.8136829578829
 s    1 1.00
                 0.122                   1
 p    1 1.00
                 0.727                   1

18 0
 s    3 1.00
                 13.01   0.033498726389998
                 1.962    0.23480080117413
                0.4446     0.8136829578829
 s    1 1.00
                 0.122                   1
 p    1 1.00
                 0.727                   1

19 0
 s    3 1.00
                 13.01   0.033498726389998
                 1.962    0.23480080117413
                0.4446     0.8136829578829
 s    1 1.00
                 0.122                   1
 p    1 1.00
                 0.727                   1

20 0
 s    3 1.00
                 13.01   0.033498726389998
                 1.962    0.23480080117413
                0.4446     0.8136829578829
 s    1 1.00
                 0.122                   1
 p    1 1.00
                 0.727                   1

21 0
 s    3 1.00
                 13.01   0.033498726389998
                 1.962    0.23480080117413
                0.4446     0.8136829578829
 s    1 1.00
                 0.122                   1
 p    1 1.00
                 0.727                   1

22 0
 s    3 1.00
                 13.01   0.033498726389998
                 1.962    0.23480080117413
                0.4446     0.8136829578829
 s    1 1.00
                 0.122                   1
 p    1 1.00
                 0.727                   1

23 0
 s    3 1.00
                 13.01   0.033498726389998
                 1.962    0.23480080117413
                0.4446     0.8136829578829
 s    1 1.00
                 0.122                   1
 p    1 1.00
                 0.727                   1

24 0
 s    3 1.00
                 13.01   0.033498726389998
                 1.962    0.23480080117413
                0.4446     0.8136829578829
 s    1 1.00
                 0.122                   1
 p    1 1.00
                 0.727                   1

[5d]
[7f]
[9g]

[MO]
 Sym= A
 Ene=     -20.5892274
 Spin= Alpha
 Occup=    2.00000
   1    -0.0001056904793289
   2    -0.001712823371587
   3    -0.0019268493879072
   4    0.0015860585666375
   5    -0.00090317209290261
   6    0.0012647850098026
   7    -0.00081495201090179
   8    -0.0023978709331065
   9    0.0029084767068863
  10    0.00015577984534571
  11    0.00016662956477831
  12    0.00033713974919725
  13    -1.9953259537171e-06
  14    -8.6364847133727e-05
  15    0.00089241106576776
  16    -0.0068874984492551
  17    -0.049705978950101
  18     0.010396626364261
  19    0.0051115409488081
  20    0.0078432227040448
  21     0.024767719694618
  22     0.016223301073693
  23     0.015773997374614
  24    0.0027374420085385
  25    -0.00074118388828868
  26    -0.0013274357205733
  27    -0.001196833212674
  28    -0.0012891833436552
  29    -0.00083235067802892
  30     0.020041068976695
  31     0.077377734888461
  32    0.0075592821501307
  33    0.0099903621122626
  34    -0.037434995243607
  35     0.040662030746385
  36     0.017506779636517
  37    -0.015445790232239
  38    -0.001945572052149
  39    -0.00064604740598873
  40    -0.0015714681457399
  41    -0.00063516835353771
  42    -5.4925715207376e-05
  43    -0.0032922094112459
  44    -0.041008969061045
  45      -0.0125366901003
  46     0.037842623651774
  47     0.020553458770667
  48     0.039305712833019
  49     0.020862697340612
  50    -0.0030175860071375
  51    -0.013200169485023
  52     0.023071284816723
  53    0.00060740285339122
  54    -0.0037435270318106
  55    -0.0066747410750835
  56    -0.0085989933909254
  57    0.0020276676777984
  58    -0.009746639757012
  59    -0.041981986376056
  60     0.019062342653544
  61    -0.0063204229654366
  62    0.0014008123685811
  63     0.025644175526283
  64    -0.015094424177024
  65    0.0016979253174615
  66    0.0027389680306469
  67    -0.00090429220226964
  68    0.0019655649174574
  69    -0.0024316034392451
  70    3.8869556832624e-05
  71    -0.00042157007864699
  72    0.00094195611898764
  73    0.0051414544755377
  74    -0.0033751888027429
  75    2.5646849952363e-05
  76    -0.0035200463494296
  77    -0.0061107550383406
  78    0.0014404447910217
  79    -0.0018042818942791
  80    6.3382874247031e-05
  81    -3.3302117450183e-05
  82    0.00030609829780127
  83    -1.7084941891706e-05
  84    0.00017146696648565
  85    -0.00078983848883248
  86    0.0015558138524643
  87     0.016114264481412
  88    0.00015501764939282
  89    0.0012197552975174
  90    -0.005000227755143
  91    -0.001450185501139
  92    0.00054722738490224
  93    -0.0086979731525327
  94    -0.00035734246449389
  95    -0.00037730298343058
  96    -1.3555388072131e-05
  97    -7.4872972330571e-05
  98    4.055449465621e-05
  99    0.00014016010468191
 100    0.0036846723933106
 101    0.0092719507766262
 102    0.00015652913212559
 103    -0.003896457760923
 104    -0.005631759636096
 105    0.0014622352661343
 106    -0.0065204235159227
 107    0.0017637210532819
 108    -0.00091394063913448
 109    -0.0010787522309081
 110    -0.00018815629587187
 111    0.00026449724812006
 112    -0.00017859578997979
 113    -0.0040171232531439
 114      0.28951146742231
 115      0.38056244619913
 116       0.1364248441931
 117      0.12069156091616
 118     -0.46830786627751
 119      0.09279045956934
 120     0.097686502044233
 121     -0.35770702346765
 122    -0.011731731117006
 123    0.0037690812951201
 124    -0.0048905673271716
 125    -0.0031876796139101
 126    0.0017110762078474
 127    7.2875657055024e-05
 128    -0.0011370472458615
 129    -0.0014687780106767
 130    0.0039297145988998
 131    -0.0019843905701273
 132    -0.0011697250984419
 133    -0.0029871972167962
 134    0.0039916537276208
 135    0.0054014941520472
 136    -0.00086017867866728
 137    -0.0010122164918437
 138    -0.00033329491955029
 139    0.0013322032440902
 140    -0.00072814859015787
 141    0.0012264197101665
 142    -0.0087650036298452
 143    -0.029085605856596
 144     0.026556869887266
 145    -0.003233253969454
 146    -0.010866699452471
 147     0.032246610022339
 148    -0.0010720676505742
 149    -0.0014006368415782
 150    0.00049442279291429
 151    0.00024938244273037
 152    -0.00010208828245966
 153    -0.00039154058574825
 154    0.00053262849335785
 155    -0.004031089672108
 156    -0.0043398482702615
 157    0.00012681836984178
 158    9.0852447196634e-05
 159    -9.3695115962468e-06
 160    -0.0031417788555856
 161    0.0041230534589544
 162    -0.0012090311867678
 163    -0.00082299622392198
 164    0.00030589648880033
 165    0.0042362400629087
 166     0.047929775540406
 167    -0.0028969416048507
 168    0.00079025987737282
 169    0.0024531024650181
 170     -0.07616804370351
 171     -0.01176616585674
 172    -0.0031136532064863
 173     0.007633540236896
 174    -0.018025535838592
 175    0.00020760612416553
 176    0.00042997764081375
 177    -0.0015505485002807
 178    -0.00019175340357008
 179    -0.00017761307508632
 180    -0.00059510163964239
 181     0.001815526460105
 182    1.4842840105678e-05
 183    -0.0012330082152741
 184    3.4362099451153e-05
 185    -7.7138000494712e-06
 186    -5.6729281734605e-06
 187    -6.3826869235716e-05
 188    -7.3730986222345e-06
 189    0.00034698044188126
 190    -0.00084618387240532
 191    -2.5835066895328e-05
 192    5.7422947093693e-05
 193    1.6885170670848e-05
 194    0.00082195798780365
 195    0.00062889357398359
 196    -4.3890087552342e-05
 197    5.1481310040148e-05
 198    2.1147786970663e-06
 199    -0.00035186712907878
 200    -0.0034442366114466
 201    3.6424715135807e-06
 202    1.2625413890647e-05
 203    0.00041698815021836
 204     0.005801477365799
 205    0.00010954245625107
 206    -0.00083016304806855
 207    0.00072250680390561
 208    0.00021986695859281
 209    -0.017916467866615
 210     0.000246957405988
 211    0.00087998581611558
 212    0.00034321274831253
 213    0.0023642289280787
 214    -0.001199350105384
 215    -0.0041219700253603
 216    3.2996438201322e-05
 217    -0.00076480630560491
 218    -0.00025386272015112
 219    -0.0013805135111558
 220    -0.0024686846280137
 221    0.00022887575129097
 222    -0.00012993826933627
 223    -0.00014967828142806
 224    -2.2164748466538e-05
 225    -0.0010733379389328
 226    0.00051899594999234
 227    -0.00052559804283925
 228    -0.00041272872908697
