[Molden Format]
made by pyscf v[2.1.0]
[Atoms] (AU)
C   1   6     2.32946917320360    -0.63344186613258     2.37168943427863
C   2   6    -0.29669267073509     0.30039086476086     3.22269546913239
C   3   6    -2.28836574026819    -0.45088865332122     1.27613394164491
C   4   6    -1.50258360260379     0.48150977544368    -1.34195877174189
C   5   6     1.17077037184366    -0.47613539434541    -1.98531603085006
O   6   8     2.90615122545875     0.36947547242271    -0.06380660259594
O   7   8    -1.02480036707776    -0.78170410868758     5.58840958940515
O   8   8    -4.71990091118567     0.61286652808832     1.81907682367207
O   9   8    -3.21856263809797    -0.39246777018029    -3.24986406162526
C   10   6     2.14873576665020     0.54311106765225    -4.52137384344336
O   11   8     0.97527064535291    -0.64120108160005    -6.63217335814292
H   12   1     0.34900595904142    -0.48214283369541     6.76077111064570
H   13   1    -5.19719092819319     0.02690592056156     3.48444332437202
H   14   1    -0.83535721281623    -0.49952075513691    -6.37469817367093
H   15   1    -4.90002393620084     0.08874342853570    -2.71063260170675
O   16   8     4.22615893853768     0.10859122202201     4.07505454789134
H   17   1     4.38166639105427     1.93178575891951     3.94362220620171
H   18   1     2.36505838530753    -2.71537014510103     2.34202262384909
H   19   1    -0.22188597236806     2.38358526023277     3.34538215831753
H   20   1    -2.40897751016855    -2.53158672058258     1.22868291865708
H   21   1    -1.45404220764209     2.56502731408288    -1.31752650267738
H   22   1     1.14953551938192    -2.55944317338479    -2.06041941621865
H   23   1     1.89192576577406     2.61534694132780    -4.54974430175146
H   24   1     4.17463555575142     0.13656105839169    -4.65046670419078
[GTO]
1 0
 s    8 1.00
                  6665  0.00069158396281299
                  1000  0.0053257961529341
                   228   0.027060721042034
                 64.71    0.10165684614077
                 21.06     0.2745748236174
                 7.495    0.44829431892377
                 2.797    0.28490261071525
                0.5215   0.015194859206082
 s    8 1.00
                  6665  -0.00029326965268655
                  1000  -0.0023180354739745
                   228  -0.011499786038565
                 64.71  -0.046826727009787
                 21.06   -0.12846616875047
                 7.495   -0.30126627246289
                 2.797   -0.25563070233011
                0.5215      1.093793361012
 s    1 1.00
                0.1596                   1
 p    3 1.00
                 9.439   0.056979251590039
                 2.002    0.31320721150073
                0.5456    0.76037674173753
 p    1 1.00
                0.1517                   1
 d    1 1.00
                  0.55                   1

2 0
 s    8 1.00
                  6665  0.00069158396281299
                  1000  0.0053257961529341
                   228   0.027060721042034
                 64.71    0.10165684614077
                 21.06     0.2745748236174
                 7.495    0.44829431892377
                 2.797    0.28490261071525
                0.5215   0.015194859206082
 s    8 1.00
                  6665  -0.00029326965268655
                  1000  -0.0023180354739745
                   228  -0.011499786038565
                 64.71  -0.046826727009787
                 21.06   -0.12846616875047
                 7.495   -0.30126627246289
                 2.797   -0.25563070233011
                0.5215      1.093793361012
 s    1 1.00
                0.1596                   1
 p    3 1.00
                 9.439   0.056979251590039
                 2.002    0.31320721150073
                0.5456    0.76037674173753
 p    1 1.00
                0.1517                   1
 d    1 1.00
                  0.55                   1

3 0
 s    8 1.00
                  6665  0.00069158396281299
                  1000  0.0053257961529341
                   228   0.027060721042034
                 64.71    0.10165684614077
                 21.06     0.2745748236174
                 7.495    0.44829431892377
                 2.797    0.28490261071525
                0.5215   0.015194859206082
 s    8 1.00
                  6665  -0.00029326965268655
                  1000  -0.0023180354739745
                   228  -0.011499786038565
                 64.71  -0.046826727009787
                 21.06   -0.12846616875047
                 7.495   -0.30126627246289
                 2.797   -0.25563070233011
                0.5215      1.093793361012
 s    1 1.00
                0.1596                   1
 p    3 1.00
                 9.439   0.056979251590039
                 2.002    0.31320721150073
                0.5456    0.76037674173753
 p    1 1.00
                0.1517                   1
 d    1 1.00
                  0.55                   1

4 0
 s    8 1.00
                  6665  0.00069158396281299
                  1000  0.0053257961529341
                   228   0.027060721042034
                 64.71    0.10165684614077
                 21.06     0.2745748236174
                 7.495    0.44829431892377
                 2.797    0.28490261071525
                0.5215   0.015194859206082
 s    8 1.00
                  6665  -0.00029326965268655
                  1000  -0.0023180354739745
                   228  -0.011499786038565
                 64.71  -0.046826727009787
                 21.06   -0.12846616875047
                 7.495   -0.30126627246289
                 2.797   -0.25563070233011
                0.5215      1.093793361012
 s    1 1.00
                0.1596                   1
 p    3 1.00
                 9.439   0.056979251590039
                 2.002    0.31320721150073
                0.5456    0.76037674173753
 p    1 1.00
                0.1517                   1
 d    1 1.00
                  0.55                   1

5 0
 s    8 1.00
                  6665  0.00069158396281299
                  1000  0.0053257961529341
                   228   0.027060721042034
                 64.71    0.10165684614077
                 21.06     0.2745748236174
                 7.495    0.44829431892377
                 2.797    0.28490261071525
                0.5215   0.015194859206082
 s    8 1.00
                  6665  -0.00029326965268655
                  1000  -0.0023180354739745
                   228  -0.011499786038565
                 64.71  -0.046826727009787
                 21.06   -0.12846616875047
                 7.495   -0.30126627246289
                 2.797   -0.25563070233011
                0.5215      1.093793361012
 s    1 1.00
                0.1596                   1
 p    3 1.00
                 9.439   0.056979251590039
                 2.002    0.31320721150073
                0.5456    0.76037674173753
 p    1 1.00
                0.1517                   1
 d    1 1.00
                  0.55                   1

6 0
 s    8 1.00
                 11720  0.00070964594651845
                  1759  0.0054672722921914
                 400.8   0.027823118610189
                 113.7    0.10474773971146
                 37.03    0.28292084635691
                 13.27    0.44849523869833
                 5.025    0.27081688521277
                 1.013    0.01545029160744
 s    8 1.00
                 11720  -0.00031444341168873
                  1759  -0.0024821376810179
                 400.8  -0.012316355381583
                 113.7  -0.050538917343672
                 37.03   -0.13938490331632
                 13.27   -0.32507749481778
                 5.025   -0.22984830758785
                 1.013     1.0953793467883
 s    1 1.00
                0.3023                   1
 p    3 1.00
                  17.7   0.062679166281506
                 3.854    0.33353656587936
                 1.046    0.74123964163973
 p    1 1.00
                0.2753                   1
 d    1 1.00
                 1.185                   1

7 0
 s    8 1.00
                 11720  0.00070964594651845
                  1759  0.0054672722921914
                 400.8   0.027823118610189
                 113.7    0.10474773971146
                 37.03    0.28292084635691
                 13.27    0.44849523869833
                 5.025    0.27081688521277
                 1.013    0.01545029160744
 s    8 1.00
                 11720  -0.00031444341168873
                  1759  -0.0024821376810179
                 400.8  -0.012316355381583
                 113.7  -0.050538917343672
                 37.03   -0.13938490331632
                 13.27   -0.32507749481778
                 5.025   -0.22984830758785
                 1.013     1.0953793467883
 s    1 1.00
                0.3023                   1
 p    3 1.00
                  17.7   0.062679166281506
                 3.854    0.33353656587936
                 1.046    0.74123964163973
 p    1 1.00
                0.2753                   1
 d    1 1.00
                 1.185                   1

8 0
 s    8 1.00
                 11720  0.00070964594651845
                  1759  0.0054672722921914
                 400.8   0.027823118610189
                 113.7    0.10474773971146
                 37.03    0.28292084635691
                 13.27    0.44849523869833
                 5.025    0.27081688521277
                 1.013    0.01545029160744
 s    8 1.00
                 11720  -0.00031444341168873
                  1759  -0.0024821376810179
                 400.8  -0.012316355381583
                 113.7  -0.050538917343672
                 37.03   -0.13938490331632
                 13.27   -0.32507749481778
                 5.025   -0.22984830758785
                 1.013     1.0953793467883
 s    1 1.00
                0.3023                   1
 p    3 1.00
                  17.7   0.062679166281506
                 3.854    0.33353656587936
                 1.046    0.74123964163973
 p    1 1.00
                0.2753                   1
 d    1 1.00
                 1.185                   1

9 0
 s    8 1.00
                 11720  0.00070964594651845
                  1759  0.0054672722921914
                 400.8   0.027823118610189
                 113.7    0.10474773971146
                 37.03    0.28292084635691
                 13.27    0.44849523869833
                 5.025    0.27081688521277
                 1.013    0.01545029160744
 s    8 1.00
                 11720  -0.00031444341168873
                  1759  -0.0024821376810179
                 400.8  -0.012316355381583
                 113.7  -0.050538917343672
                 37.03   -0.13938490331632
                 13.27   -0.32507749481778
                 5.025   -0.22984830758785
                 1.013     1.0953793467883
 s    1 1.00
                0.3023                   1
 p    3 1.00
                  17.7   0.062679166281506
                 3.854    0.33353656587936
                 1.046    0.74123964163973
 p    1 1.00
                0.2753                   1
 d    1 1.00
                 1.185                   1

10 0
 s    8 1.00
                  6665  0.00069158396281299
                  1000  0.0053257961529341
                   228   0.027060721042034
                 64.71    0.10165684614077
                 21.06     0.2745748236174
                 7.495    0.44829431892377
                 2.797    0.28490261071525
                0.5215   0.015194859206082
 s    8 1.00
                  6665  -0.00029326965268655
                  1000  -0.0023180354739745
                   228  -0.011499786038565
                 64.71  -0.046826727009787
                 21.06   -0.12846616875047
                 7.495   -0.30126627246289
                 2.797   -0.25563070233011
                0.5215      1.093793361012
 s    1 1.00
                0.1596                   1
 p    3 1.00
                 9.439   0.056979251590039
                 2.002    0.31320721150073
                0.5456    0.76037674173753
 p    1 1.00
                0.1517                   1
 d    1 1.00
                  0.55                   1

11 0
 s    8 1.00
                 11720  0.00070964594651845
                  1759  0.0054672722921914
                 400.8   0.027823118610189
                 113.7    0.10474773971146
                 37.03    0.28292084635691
                 13.27    0.44849523869833
                 5.025    0.27081688521277
                 1.013    0.01545029160744
 s    8 1.00
                 11720  -0.00031444341168873
                  1759  -0.0024821376810179
                 400.8  -0.012316355381583
                 113.7  -0.050538917343672
                 37.03   -0.13938490331632
                 13.27   -0.32507749481778
                 5.025   -0.22984830758785
                 1.013     1.0953793467883
 s    1 1.00
                0.3023                   1
 p    3 1.00
                  17.7   0.062679166281506
                 3.854    0.33353656587936
                 1.046    0.74123964163973
 p    1 1.00
                0.2753                   1
 d    1 1.00
                 1.185                   1

12 0
 s    3 1.00
                 13.01   0.033498726389998
                 1.962    0.23480080117413
                0.4446     0.8136829578829
 s    1 1.00
                 0.122                   1
 p    1 1.00
                 0.727                   1

13 0
 s    3 1.00
                 13.01   0.033498726389998
                 1.962    0.23480080117413
                0.4446     0.8136829578829
 s    1 1.00
                 0.122                   1
 p    1 1.00
                 0.727                   1

14 0
 s    3 1.00
                 13.01   0.033498726389998
                 1.962    0.23480080117413
                0.4446     0.8136829578829
 s    1 1.00
                 0.122                   1
 p    1 1.00
                 0.727                   1

15 0
 s    3 1.00
                 13.01   0.033498726389998
                 1.962    0.23480080117413
                0.4446     0.8136829578829
 s    1 1.00
                 0.122                   1
 p    1 1.00
                 0.727                   1

16 0
 s    8 1.00
                 11720  0.00070964594651845
                  1759  0.0054672722921914
                 400.8   0.027823118610189
                 113.7    0.10474773971146
                 37.03    0.28292084635691
                 13.27    0.44849523869833
                 5.025    0.27081688521277
                 1.013    0.01545029160744
 s    8 1.00
                 11720  -0.00031444341168873
                  1759  -0.0024821376810179
                 400.8  -0.012316355381583
                 113.7  -0.050538917343672
                 37.03   -0.13938490331632
                 13.27   -0.32507749481778
                 5.025   -0.22984830758785
                 1.013     1.0953793467883
 s    1 1.00
                0.3023                   1
 p    3 1.00
                  17.7   0.062679166281506
                 3.854    0.33353656587936
                 1.046    0.74123964163973
 p    1 1.00
                0.2753                   1
 d    1 1.00
                 1.185                   1

17 0
 s    3 1.00
                 13.01   0.033498726389998
                 1.962    0.23480080117413
                0.4446     0.8136829578829
 s    1 1.00
                 0.122                   1
 p    1 1.00
                 0.727                   1

18 0
 s    3 1.00
                 13.01   0.033498726389998
                 1.962    0.23480080117413
                0.4446     0.8136829578829
 s    1 1.00
                 0.122                   1
 p    1 1.00
                 0.727                   1

19 0
 s    3 1.00
                 13.01   0.033498726389998
                 1.962    0.23480080117413
                0.4446     0.8136829578829
 s    1 1.00
                 0.122                   1
 p    1 1.00
                 0.727                   1

20 0
 s    3 1.00
                 13.01   0.033498726389998
                 1.962    0.23480080117413
                0.4446     0.8136829578829
 s    1 1.00
                 0.122                   1
 p    1 1.00
                 0.727                   1

21 0
 s    3 1.00
                 13.01   0.033498726389998
                 1.962    0.23480080117413
                0.4446     0.8136829578829
 s    1 1.00
                 0.122                   1
 p    1 1.00
                 0.727                   1

22 0
 s    3 1.00
                 13.01   0.033498726389998
                 1.962    0.23480080117413
                0.4446     0.8136829578829
 s    1 1.00
                 0.122                   1
 p    1 1.00
                 0.727                   1

23 0
 s    3 1.00
                 13.01   0.033498726389998
                 1.962    0.23480080117413
                0.4446     0.8136829578829
 s    1 1.00
                 0.122                   1
 p    1 1.00
                 0.727                   1

24 0
 s    3 1.00
                 13.01   0.033498726389998
                 1.962    0.23480080117413
                0.4446     0.8136829578829
 s    1 1.00
                 0.122                   1
 p    1 1.00
                 0.727                   1

[5d]
[7f]
[9g]

[MO]
 Sym= A
 Ene=     -20.5892274
 Spin= Alpha
 Occup=    2.00000
   1    -0.0016717060235267
   2     -0.02533162548508
   3    -0.057659463865587
   4    -0.032023325572195
   5    -0.007375429725765
   6    -0.037723560938671
   7    -0.038269778638126
   8     -0.01027916235632
   9     -0.05759256817482
  10    -0.0093697558030817
  11    -0.0064024354001054
  12     0.011950856280553
  13    -0.012242790302747
  14     0.014711140022956
  15    -0.00063135834616474
  16    -0.0074499630956256
  17    -0.020394163537314
  18    -0.011264469002405
  19    -0.0057801387620448
  20    -0.00079158963620475
  21     0.022424411050823
  22    -0.0071791667386245
  23     0.027936310649129
  24    0.00034058605809515
  25    -0.0018295127255723
  26    7.8883217681829e-05
  27    -0.0008106580938731
  28    -0.00024644331252061
  29    -0.001005104770966
  30    -0.0011623552731748
  31     0.028609727935087
  32    0.0022884013971279
  33    0.0019754203986243
  34    0.0020031184964557
  35    0.0032262136623359
  36      0.01843710163159
  37     0.010001519925405
  38    0.00038306209872532
  39    0.00063088241343557
  40    0.00043979294818708
  41    0.00029722810240317
  42    -0.00012712431077281
  43    0.00041113720555083
  44    0.0008970000365227
  45    -0.0019141338037599
  46    0.00030143138367156
  47    0.00050930877305631
  48    0.00029874070574202
  49    -0.00045584947937224
  50    -0.0068805258404289
  51    -0.0066819709246623
  52    -0.00027995374574795
  53    0.00074698305141145
  54    -8.7070365066672e-05
  55    -0.00011790972027257
  56    0.00010089431494695
  57     0.000744519878859
  58    0.0022692111332354
  59    -0.0035780650647523
  60    0.0028769507158779
  61    0.0033145328162985
  62    0.0032837192306076
  63    0.0043914040678986
  64     0.007899246643958
  65    -0.0082503512018986
  66    -0.00032323597494472
  67    0.00057318934360015
  68    -8.7209478845476e-05
  69    0.00047192709579774
  70    0.00036926667897062
  71    -4.3034290099862e-05
  72    -0.0043242078534824
  73    -0.014864400934859
  74     0.000944189094276
  75    -0.00064966903600471
  76    -0.011017007704856
  77    0.0052118107618151
  78    0.0027440706273941
  79    -0.0040270787842846
  80    -0.00037200521640689
  81    -0.00011160309555706
  82    0.00027444442750462
  83    -0.00024137679401073
  84    0.00092097775887476
  85    0.00091923666059303
  86     0.002159483668429
  87    -0.0077040919615315
  88    0.0017752191927702
  89    0.0011671246905013
  90    -0.0015125231962625
  91    -0.0015834237179044
  92    -0.0014427867037853
  93    0.00025081048860343
  94    5.4926518257991e-05
  95    0.00018145555011839
  96    0.00014517657072641
  97    -0.00015513721933029
  98    -0.00016726407858238
  99    0.00048823219832366
 100    0.0010742678933362
 101    -0.0056791669888532
 102    0.00044572147833698
 103    -0.00052878801687089
 104    -0.00034369772909254
 105    -0.0030874602956217
 106    -0.0010484532160644
 107    0.00093064519971436
 108    6.6845016550975e-05
 109    6.9735764047893e-05
 110    -3.3490654897677e-05
 111    -4.8235275840657e-05
 112    2.2304757634394e-05
 113    0.00030138023251307
 114    0.00071214885769148
 115    -0.0026778283815587
 116    0.00038095524407009
 117    -0.00015851675090112
 118    0.00027719842144014
 119    -0.0015483625392919
 120    -0.00014189514049273
 121    2.2236797510772e-05
 122    7.7956535098685e-06
 123    -6.3398801894817e-05
 124    7.2764818526657e-06
 125    -2.5385825576429e-05
 126    -7.7288582963807e-06
 127    0.00040894518961711
 128    0.00062032796101628
 129    -0.0077797852247583
 130    -0.00033881251961963
 131    -2.5344962851231e-05
 132    0.00021825607087577
 133    0.0030435955915101
 134    0.0011162708366797
 135    -0.0025956081179829
 136    7.3098693227503e-05
 137    0.0001754238594681
 138    7.6821586826023e-05
 139    -1.6513299487597e-05
 140    -7.9584171473739e-05
 141    -0.00010471426861253
 142    3.6299551489355e-05
 143    0.0017278861475576
 144    0.00015598302864379
 145    5.694518089967e-05
 146    0.00064217937546633
 147    4.6205217863574e-05
 148    0.00026838959229343
 149    0.00092213344991272
 150    1.3234597656506e-05
 151    -1.2717573450153e-06
 152    3.9902636283263e-05
 153    7.2787217985031e-06
 154    -9.5646710624842e-06
 155    0.0010277170805026
 156    -0.0049997696872487
 157    -0.00097168790145692
 158    -8.7292093274603e-05
 159    0.00040656506467907
 160    -0.00037330067862914
 161    -0.0024186161631067
 162    -3.8697166034258e-05
 163    7.7201500745865e-05
 164    0.00013322271866701
 165    -7.0497705997602e-05
 166    -0.00051686044792112
 167    -6.5764345207288e-05
 168    4.7059840037793e-05
 169    -6.3537326188047e-06
 170    -0.00045560714854668
 171    -0.0005695592434969
 172    -1.104986501646e-06
 173    4.2307303222169e-05
 174    0.00011789579793465
 175    -0.0070770444607697
 176      0.22009131098018
 177      0.15575016404158
 178     0.048519201867511
 179      0.41949843286042
 180    -0.013253531061653
 181    0.0064062698300341
 182      0.18947271191602
 183    -0.017647503778488
 184    -0.0071547803224972
 185    -0.0014167908821174
 186    -0.0075357582234513
 187    -0.014702533822614
 188    -0.0050451656184877
 189       0.4180119900824
 190     0.074408778979291
 191    -0.009748728081928
 192    -0.060484240765152
 193    0.0030518465491305
 194     0.026899854276767
 195     0.028965786914545
 196    0.0021597107672847
 197    -0.0011826279288447
 198    0.0027236678802866
 199    -0.0042602582627682
 200    0.0095100869280416
 201    0.00030471647992654
 202    0.00023027887948527
 203    -0.00067995976448581
 204    -0.0013683340388108
 205    0.0040649377180897
 206    0.00036148843176975
 207    -0.00018290839934179
 208    -0.00016234731121529
 209    0.0010046042628028
 210    0.0011157128667982
 211    0.00014695136177401
 212    0.00015038064131267
 213    0.00018733614652235
 214    -0.0012746712467158
 215    0.00026003398139433
 216    -7.4414646474492e-05
 217    -0.00021084691795943
 218    0.00038278385688712
 219    -0.00017237197054418
 220    -0.00045854974418558
 221    -0.00012168528731994
 222    3.0662395053853e-06
 223    -1.2508098885805e-05
 224    -0.00025653332781142
 225    -0.0015256843208885
 226    4.711622608915e-05
 227    -4.4198058894886e-05
 228    3.4662882654796e-06
