[Molden Format]
made by pyscf v[2.1.0]
[Atoms] (AU)
C   1   6     2.32946917320360    -0.63344186613258     2.37168943427863
C   2   6    -0.29669267073509     0.30039086476086     3.22269546913239
C   3   6    -2.28836574026819    -0.45088865332122     1.27613394164491
C   4   6    -1.50258360260379     0.48150977544368    -1.34195877174189
C   5   6     1.17077037184366    -0.47613539434541    -1.98531603085006
O   6   8     2.90615122545875     0.36947547242271    -0.06380660259594
O   7   8    -1.02480036707776    -0.78170410868758     5.58840958940515
O   8   8    -4.71990091118567     0.61286652808832     1.81907682367207
O   9   8    -3.21856263809797    -0.39246777018029    -3.24986406162526
C   10   6     2.14873576665020     0.54311106765225    -4.52137384344336
O   11   8     0.97527064535291    -0.64120108160005    -6.63217335814292
H   12   1     0.34900595904142    -0.48214283369541     6.76077111064570
H   13   1    -5.19719092819319     0.02690592056156     3.48444332437202
H   14   1    -0.83535721281623    -0.49952075513691    -6.37469817367093
H   15   1    -4.90002393620084     0.08874342853570    -2.71063260170675
O   16   8     4.22615893853768     0.10859122202201     4.07505454789134
H   17   1     4.38166639105427     1.93178575891951     3.94362220620171
H   18   1     2.36505838530753    -2.71537014510103     2.34202262384909
H   19   1    -0.22188597236806     2.38358526023277     3.34538215831753
H   20   1    -2.40897751016855    -2.53158672058258     1.22868291865708
H   21   1    -1.45404220764209     2.56502731408288    -1.31752650267738
H   22   1     1.14953551938192    -2.55944317338479    -2.06041941621865
H   23   1     1.89192576577406     2.61534694132780    -4.54974430175146
H   24   1     4.17463555575142     0.13656105839169    -4.65046670419078
[GTO]
1 0
 s    8 1.00
                  6665  0.00069158396281299
                  1000  0.0053257961529341
                   228   0.027060721042034
                 64.71    0.10165684614077
                 21.06     0.2745748236174
                 7.495    0.44829431892377
                 2.797    0.28490261071525
                0.5215   0.015194859206082
 s    8 1.00
                  6665  -0.00029326965268655
                  1000  -0.0023180354739745
                   228  -0.011499786038565
                 64.71  -0.046826727009787
                 21.06   -0.12846616875047
                 7.495   -0.30126627246289
                 2.797   -0.25563070233011
                0.5215      1.093793361012
 s    1 1.00
                0.1596                   1
 p    3 1.00
                 9.439   0.056979251590039
                 2.002    0.31320721150073
                0.5456    0.76037674173753
 p    1 1.00
                0.1517                   1
 d    1 1.00
                  0.55                   1

2 0
 s    8 1.00
                  6665  0.00069158396281299
                  1000  0.0053257961529341
                   228   0.027060721042034
                 64.71    0.10165684614077
                 21.06     0.2745748236174
                 7.495    0.44829431892377
                 2.797    0.28490261071525
                0.5215   0.015194859206082
 s    8 1.00
                  6665  -0.00029326965268655
                  1000  -0.0023180354739745
                   228  -0.011499786038565
                 64.71  -0.046826727009787
                 21.06   -0.12846616875047
                 7.495   -0.30126627246289
                 2.797   -0.25563070233011
                0.5215      1.093793361012
 s    1 1.00
                0.1596                   1
 p    3 1.00
                 9.439   0.056979251590039
                 2.002    0.31320721150073
                0.5456    0.76037674173753
 p    1 1.00
                0.1517                   1
 d    1 1.00
                  0.55                   1

3 0
 s    8 1.00
                  6665  0.00069158396281299
                  1000  0.0053257961529341
                   228   0.027060721042034
                 64.71    0.10165684614077
                 21.06     0.2745748236174
                 7.495    0.44829431892377
                 2.797    0.28490261071525
                0.5215   0.015194859206082
 s    8 1.00
                  6665  -0.00029326965268655
                  1000  -0.0023180354739745
                   228  -0.011499786038565
                 64.71  -0.046826727009787
                 21.06   -0.12846616875047
                 7.495   -0.30126627246289
                 2.797   -0.25563070233011
                0.5215      1.093793361012
 s    1 1.00
                0.1596                   1
 p    3 1.00
                 9.439   0.056979251590039
                 2.002    0.31320721150073
                0.5456    0.76037674173753
 p    1 1.00
                0.1517                   1
 d    1 1.00
                  0.55                   1

4 0
 s    8 1.00
                  6665  0.00069158396281299
                  1000  0.0053257961529341
                   228   0.027060721042034
                 64.71    0.10165684614077
                 21.06     0.2745748236174
                 7.495    0.44829431892377
                 2.797    0.28490261071525
                0.5215   0.015194859206082
 s    8 1.00
                  6665  -0.00029326965268655
                  1000  -0.0023180354739745
                   228  -0.011499786038565
                 64.71  -0.046826727009787
                 21.06   -0.12846616875047
                 7.495   -0.30126627246289
                 2.797   -0.25563070233011
                0.5215      1.093793361012
 s    1 1.00
                0.1596                   1
 p    3 1.00
                 9.439   0.056979251590039
                 2.002    0.31320721150073
                0.5456    0.76037674173753
 p    1 1.00
                0.1517                   1
 d    1 1.00
                  0.55                   1

5 0
 s    8 1.00
                  6665  0.00069158396281299
                  1000  0.0053257961529341
                   228   0.027060721042034
                 64.71    0.10165684614077
                 21.06     0.2745748236174
                 7.495    0.44829431892377
                 2.797    0.28490261071525
                0.5215   0.015194859206082
 s    8 1.00
                  6665  -0.00029326965268655
                  1000  -0.0023180354739745
                   228  -0.011499786038565
                 64.71  -0.046826727009787
                 21.06   -0.12846616875047
                 7.495   -0.30126627246289
                 2.797   -0.25563070233011
                0.5215      1.093793361012
 s    1 1.00
                0.1596                   1
 p    3 1.00
                 9.439   0.056979251590039
                 2.002    0.31320721150073
                0.5456    0.76037674173753
 p    1 1.00
                0.1517                   1
 d    1 1.00
                  0.55                   1

6 0
 s    8 1.00
                 11720  0.00070964594651845
                  1759  0.0054672722921914
                 400.8   0.027823118610189
                 113.7    0.10474773971146
                 37.03    0.28292084635691
                 13.27    0.44849523869833
                 5.025    0.27081688521277
                 1.013    0.01545029160744
 s    8 1.00
                 11720  -0.00031444341168873
                  1759  -0.0024821376810179
                 400.8  -0.012316355381583
                 113.7  -0.050538917343672
                 37.03   -0.13938490331632
                 13.27   -0.32507749481778
                 5.025   -0.22984830758785
                 1.013     1.0953793467883
 s    1 1.00
                0.3023                   1
 p    3 1.00
                  17.7   0.062679166281506
                 3.854    0.33353656587936
                 1.046    0.74123964163973
 p    1 1.00
                0.2753                   1
 d    1 1.00
                 1.185                   1

7 0
 s    8 1.00
                 11720  0.00070964594651845
                  1759  0.0054672722921914
                 400.8   0.027823118610189
                 113.7    0.10474773971146
                 37.03    0.28292084635691
                 13.27    0.44849523869833
                 5.025    0.27081688521277
                 1.013    0.01545029160744
 s    8 1.00
                 11720  -0.00031444341168873
                  1759  -0.0024821376810179
                 400.8  -0.012316355381583
                 113.7  -0.050538917343672
                 37.03   -0.13938490331632
                 13.27   -0.32507749481778
                 5.025   -0.22984830758785
                 1.013     1.0953793467883
 s    1 1.00
                0.3023                   1
 p    3 1.00
                  17.7   0.062679166281506
                 3.854    0.33353656587936
                 1.046    0.74123964163973
 p    1 1.00
                0.2753                   1
 d    1 1.00
                 1.185                   1

8 0
 s    8 1.00
                 11720  0.00070964594651845
                  1759  0.0054672722921914
                 400.8   0.027823118610189
                 113.7    0.10474773971146
                 37.03    0.28292084635691
                 13.27    0.44849523869833
                 5.025    0.27081688521277
                 1.013    0.01545029160744
 s    8 1.00
                 11720  -0.00031444341168873
                  1759  -0.0024821376810179
                 400.8  -0.012316355381583
                 113.7  -0.050538917343672
                 37.03   -0.13938490331632
                 13.27   -0.32507749481778
                 5.025   -0.22984830758785
                 1.013     1.0953793467883
 s    1 1.00
                0.3023                   1
 p    3 1.00
                  17.7   0.062679166281506
                 3.854    0.33353656587936
                 1.046    0.74123964163973
 p    1 1.00
                0.2753                   1
 d    1 1.00
                 1.185                   1

9 0
 s    8 1.00
                 11720  0.00070964594651845
                  1759  0.0054672722921914
                 400.8   0.027823118610189
                 113.7    0.10474773971146
                 37.03    0.28292084635691
                 13.27    0.44849523869833
                 5.025    0.27081688521277
                 1.013    0.01545029160744
 s    8 1.00
                 11720  -0.00031444341168873
                  1759  -0.0024821376810179
                 400.8  -0.012316355381583
                 113.7  -0.050538917343672
                 37.03   -0.13938490331632
                 13.27   -0.32507749481778
                 5.025   -0.22984830758785
                 1.013     1.0953793467883
 s    1 1.00
                0.3023                   1
 p    3 1.00
                  17.7   0.062679166281506
                 3.854    0.33353656587936
                 1.046    0.74123964163973
 p    1 1.00
                0.2753                   1
 d    1 1.00
                 1.185                   1

10 0
 s    8 1.00
                  6665  0.00069158396281299
                  1000  0.0053257961529341
                   228   0.027060721042034
                 64.71    0.10165684614077
                 21.06     0.2745748236174
                 7.495    0.44829431892377
                 2.797    0.28490261071525
                0.5215   0.015194859206082
 s    8 1.00
                  6665  -0.00029326965268655
                  1000  -0.0023180354739745
                   228  -0.011499786038565
                 64.71  -0.046826727009787
                 21.06   -0.12846616875047
                 7.495   -0.30126627246289
                 2.797   -0.25563070233011
                0.5215      1.093793361012
 s    1 1.00
                0.1596                   1
 p    3 1.00
                 9.439   0.056979251590039
                 2.002    0.31320721150073
                0.5456    0.76037674173753
 p    1 1.00
                0.1517                   1
 d    1 1.00
                  0.55                   1

11 0
 s    8 1.00
                 11720  0.00070964594651845
                  1759  0.0054672722921914
                 400.8   0.027823118610189
                 113.7    0.10474773971146
                 37.03    0.28292084635691
                 13.27    0.44849523869833
                 5.025    0.27081688521277
                 1.013    0.01545029160744
 s    8 1.00
                 11720  -0.00031444341168873
                  1759  -0.0024821376810179
                 400.8  -0.012316355381583
                 113.7  -0.050538917343672
                 37.03   -0.13938490331632
                 13.27   -0.32507749481778
                 5.025   -0.22984830758785
                 1.013     1.0953793467883
 s    1 1.00
                0.3023                   1
 p    3 1.00
                  17.7   0.062679166281506
                 3.854    0.33353656587936
                 1.046    0.74123964163973
 p    1 1.00
                0.2753                   1
 d    1 1.00
                 1.185                   1

12 0
 s    3 1.00
                 13.01   0.033498726389998
                 1.962    0.23480080117413
                0.4446     0.8136829578829
 s    1 1.00
                 0.122                   1
 p    1 1.00
                 0.727                   1

13 0
 s    3 1.00
                 13.01   0.033498726389998
                 1.962    0.23480080117413
                0.4446     0.8136829578829
 s    1 1.00
                 0.122                   1
 p    1 1.00
                 0.727                   1

14 0
 s    3 1.00
                 13.01   0.033498726389998
                 1.962    0.23480080117413
                0.4446     0.8136829578829
 s    1 1.00
                 0.122                   1
 p    1 1.00
                 0.727                   1

15 0
 s    3 1.00
                 13.01   0.033498726389998
                 1.962    0.23480080117413
                0.4446     0.8136829578829
 s    1 1.00
                 0.122                   1
 p    1 1.00
                 0.727                   1

16 0
 s    8 1.00
                 11720  0.00070964594651845
                  1759  0.0054672722921914
                 400.8   0.027823118610189
                 113.7    0.10474773971146
                 37.03    0.28292084635691
                 13.27    0.44849523869833
                 5.025    0.27081688521277
                 1.013    0.01545029160744
 s    8 1.00
                 11720  -0.00031444341168873
                  1759  -0.0024821376810179
                 400.8  -0.012316355381583
                 113.7  -0.050538917343672
                 37.03   -0.13938490331632
                 13.27   -0.32507749481778
                 5.025   -0.22984830758785
                 1.013     1.0953793467883
 s    1 1.00
                0.3023                   1
 p    3 1.00
                  17.7   0.062679166281506
                 3.854    0.33353656587936
                 1.046    0.74123964163973
 p    1 1.00
                0.2753                   1
 d    1 1.00
                 1.185                   1

17 0
 s    3 1.00
                 13.01   0.033498726389998
                 1.962    0.23480080117413
                0.4446     0.8136829578829
 s    1 1.00
                 0.122                   1
 p    1 1.00
                 0.727                   1

18 0
 s    3 1.00
                 13.01   0.033498726389998
                 1.962    0.23480080117413
                0.4446     0.8136829578829
 s    1 1.00
                 0.122                   1
 p    1 1.00
                 0.727                   1

19 0
 s    3 1.00
                 13.01   0.033498726389998
                 1.962    0.23480080117413
                0.4446     0.8136829578829
 s    1 1.00
                 0.122                   1
 p    1 1.00
                 0.727                   1

20 0
 s    3 1.00
                 13.01   0.033498726389998
                 1.962    0.23480080117413
                0.4446     0.8136829578829
 s    1 1.00
                 0.122                   1
 p    1 1.00
                 0.727                   1

21 0
 s    3 1.00
                 13.01   0.033498726389998
                 1.962    0.23480080117413
                0.4446     0.8136829578829
 s    1 1.00
                 0.122                   1
 p    1 1.00
                 0.727                   1

22 0
 s    3 1.00
                 13.01   0.033498726389998
                 1.962    0.23480080117413
                0.4446     0.8136829578829
 s    1 1.00
                 0.122                   1
 p    1 1.00
                 0.727                   1

23 0
 s    3 1.00
                 13.01   0.033498726389998
                 1.962    0.23480080117413
                0.4446     0.8136829578829
 s    1 1.00
                 0.122                   1
 p    1 1.00
                 0.727                   1

24 0
 s    3 1.00
                 13.01   0.033498726389998
                 1.962    0.23480080117413
                0.4446     0.8136829578829
 s    1 1.00
                 0.122                   1
 p    1 1.00
                 0.727                   1

[5d]
[7f]
[9g]

[MO]
 Sym= A
 Ene=     -20.5892274
 Spin= Alpha
 Occup=    2.00000
   1    -0.00012839861542121
   2    -0.0049537312077802
   3    -0.010203424228407
   4    -0.0026730734958151
   5    -0.0043529746213576
   6    0.0079371582325101
   7    0.0015151489794962
   8    -0.0031893224261393
   9    0.0007687750016852
  10    0.00083917204783947
  11    0.0013535762847324
  12     0.001011910119383
  13    0.00047225979696566
  14    -0.00034799080753373
  15    -0.00075674905517723
  16    -0.0012763977313669
  17    0.0093600276616189
  18    0.00074544439676971
  19    5.8413760353156e-06
  20    0.00075390386249453
  21     0.003178921839725
  22    -0.0041247295722649
  23    -0.0016944875819362
  24    2.1596195868107e-05
  25    0.00023405866550689
  26    4.8545911064018e-05
  27    3.6232005606523e-05
  28    -0.00023966524501954
  29    -0.00016428109577047
  30    -0.00033534276697308
  31    0.00023233766248024
  32    0.00025298513679929
  33    -0.00031220246393088
  34    -0.0001979115578759
  35    -0.0049936909137678
  36    0.0030334231812681
  37    -0.0039047638172344
  38    0.00025417700958398
  39    -0.0003569912202337
  40    -0.00034929258717045
  41    0.00028571244788774
  42    -0.00015083020827316
  43    -0.0014836051471969
  44    -0.0035119254795304
  45     0.019849493687579
  46    -0.0012444282431374
  47    0.0015476148474734
  48    0.0035255485000941
  49     0.015596427296642
  50    0.0031015588305357
  51    -0.0076104041055556
  52    -0.00047222361607787
  53    0.0012324085587028
  54    0.00058415881738708
  55    -0.00023439648880197
  56    -0.00056214545546767
  57    0.0015617648858925
  58    -0.018462545225742
  59    -0.039094143148408
  60    -0.013993767419229
  61    -0.010819583000598
  62     0.018713745022246
  63    0.00072679652224329
  64    -0.028454349354573
  65     0.011685575086864
  66     0.011181647311679
  67    0.0030794391392903
  68    0.0026435556333076
  69    0.0006076560848522
  70    -0.0039134063753747
  71    -0.00041448374191688
  72    0.0056262284178098
  73     0.025613473052322
  74    -0.0086586006356564
  75    -0.0046392335261161
  76    -0.012382757447736
  77    -0.0070490485447691
  78    0.0011428054281952
  79    -0.014987419062166
  80    -0.0012143311691697
  81    0.00025976488068657
  82    0.00030581756680274
  83    0.00033202915937186
  84    7.2134466965094e-05
  85    2.8852873305696e-05
  86    -0.00010338859986999
  87    -0.001145844037189
  88    -0.00037225298486733
  89    -5.190156688016e-05
  90    0.00044311071311175
  91    -0.001107164063203
  92    0.00023892783329013
  93    0.00088630011166405
  94    -1.4683007134809e-05
  95    -1.6173055578529e-05
  96    1.2845994114864e-06
  97    -1.8728291018058e-05
  98    -9.0667180648731e-06
  99    0.00010233598038487
 100    0.00026191627295129
 101    -0.0015634880057925
 102    0.00012935385343134
 103    -0.00014938486183168
 104    3.246547778034e-05
 105    0.0001813597006588
 106    0.00050558745902699
 107    5.321918008075e-05
 108    -2.4333026144327e-05
 109    4.2019494059636e-05
 110    -3.9562576617831e-06
 111    -4.0448270805845e-06
 112    2.1114035912644e-05
 113    -0.00025342650968678
 114    -0.00014122937443445
 115     0.002554313475449
 116    -0.00078258547265136
 117    -0.0010257482837306
 118    -0.00053500594026647
 119    -0.00098914764942601
 120    -0.0015963435470177
 121    -0.0041991916346579
 122    -0.00024640916188703
 123    -0.00033203310301303
 124    -0.00016899659899241
 125     0.000103570390484
 126    -3.7885085310369e-05
 127    -0.0054195449380296
 128      0.16335681065373
 129     0.059794963346865
 130      -0.1551593265393
 131     -0.14239905983788
 132     -0.25054246275062
 133    -0.066846515721663
 134    -0.031831434728618
 135     -0.05955983957183
 136      0.02032506684904
 137     0.032766555197332
 138     0.030741313573818
 139    0.0031951209277293
 140     0.020217298628059
 141    -0.0080324606599921
 142      0.20540012150701
 143      0.19653675052867
 144      0.18875565709137
 145      0.18781345729692
 146        0.324857632852
 147      0.10257161180601
 148      0.12344659620976
 149      0.21326865449776
 150     0.014376984275402
 151    0.0080105222309413
 152     0.015876025630933
 153    -0.0052231125068606
 154    0.0044195073917357
 155    -6.9379848170963e-05
 156    -0.00037327931193538
 157    -3.1920471671656e-05
 158    -4.4495762593307e-05
 159    -5.2737053121877e-05
 160    0.00022301284029793
 161    -0.00023814568506132
 162    9.862382610038e-05
 163    -3.1025411146067e-05
 164    -0.0001229147709808
 165    -0.051101191850329
 166    -0.051499300333242
 167    0.0024814676282472
 168    0.0069716510956448
 169      0.01199586102848
 170    0.0002741062912599
 171    0.0027694450665916
 172    0.0002746009259428
 173    6.0364814007853e-05
 174    0.00052003812734526
 175    -6.3898197002834e-05
 176    0.00082844682999312
 177    0.0023450377625121
 178    -0.00097421350461639
 179    0.00010968139645565
 180    -0.0030117055420426
 181    -0.0011398635659188
 182    0.00029242648927473
 183    -0.0032504430089492
 184    -0.00017551126047968
 185    -0.00010347258499483
 186    -7.4868327112185e-05
 187    -3.4542369133443e-05
 188    1.4637920013503e-05
 189    0.00077733414716636
 190    -0.0003899512537085
 191    -3.3109656077181e-06
 192    -1.5450312466889e-05
 193    -8.8771816293667e-05
 194    0.00012038038082659
 195    0.00089101202006871
 196    -0.00019821084236589
 197    0.00017453864598057
 198    0.00043638842753753
 199    0.00029696929821591
 200    0.0021612919755653
 201    -6.4823016597164e-05
 202    -3.7329899051679e-05
 203    0.00013365009964509
 204    0.00074267555612964
 205    0.0023603526096078
 206    0.00019125002218732
 207    0.00018214853095283
 208    0.00011488329689685
 209    -0.00032013057140002
 210    4.2575400619807e-05
 211    -0.00045525250696079
 212    0.00022125910381706
 213    0.0005626278087682
 214    -0.010609898971571
 215    -0.018519190087505
 216    -0.0012770746705178
 217    -0.0005753630378589
 218    0.00058793478141816
 219    -0.022380483717516
 220      -0.0278243805714
 221    -0.0030978378821421
 222    -0.005584496786573
 223    -0.006835065375148
 224    -0.014086546565165
 225    -0.011586851703155
 226    -0.005231020292782
 227    -0.0030426069684648
 228    -0.005245957374462
