[Molden Format]
made by pyscf v[2.1.0]
[Atoms] (AU)
C   1   6     2.32946917320360    -0.63344186613258     2.37168943427863
C   2   6    -0.29669267073509     0.30039086476086     3.22269546913239
C   3   6    -2.28836574026819    -0.45088865332122     1.27613394164491
C   4   6    -1.50258360260379     0.48150977544368    -1.34195877174189
C   5   6     1.17077037184366    -0.47613539434541    -1.98531603085006
O   6   8     2.90615122545875     0.36947547242271    -0.06380660259594
O   7   8    -1.02480036707776    -0.78170410868758     5.58840958940515
O   8   8    -4.71990091118567     0.61286652808832     1.81907682367207
O   9   8    -3.21856263809797    -0.39246777018029    -3.24986406162526
C   10   6     2.14873576665020     0.54311106765225    -4.52137384344336
O   11   8     0.97527064535291    -0.64120108160005    -6.63217335814292
H   12   1     0.34900595904142    -0.48214283369541     6.76077111064570
H   13   1    -5.19719092819319     0.02690592056156     3.48444332437202
H   14   1    -0.83535721281623    -0.49952075513691    -6.37469817367093
H   15   1    -4.90002393620084     0.08874342853570    -2.71063260170675
O   16   8     4.22615893853768     0.10859122202201     4.07505454789134
H   17   1     4.38166639105427     1.93178575891951     3.94362220620171
H   18   1     2.36505838530753    -2.71537014510103     2.34202262384909
H   19   1    -0.22188597236806     2.38358526023277     3.34538215831753
H   20   1    -2.40897751016855    -2.53158672058258     1.22868291865708
H   21   1    -1.45404220764209     2.56502731408288    -1.31752650267738
H   22   1     1.14953551938192    -2.55944317338479    -2.06041941621865
H   23   1     1.89192576577406     2.61534694132780    -4.54974430175146
H   24   1     4.17463555575142     0.13656105839169    -4.65046670419078
[GTO]
1 0
 s    8 1.00
                  6665  0.00069158396281299
                  1000  0.0053257961529341
                   228   0.027060721042034
                 64.71    0.10165684614077
                 21.06     0.2745748236174
                 7.495    0.44829431892377
                 2.797    0.28490261071525
                0.5215   0.015194859206082
 s    8 1.00
                  6665  -0.00029326965268655
                  1000  -0.0023180354739745
                   228  -0.011499786038565
                 64.71  -0.046826727009787
                 21.06   -0.12846616875047
                 7.495   -0.30126627246289
                 2.797   -0.25563070233011
                0.5215      1.093793361012
 s    1 1.00
                0.1596                   1
 p    3 1.00
                 9.439   0.056979251590039
                 2.002    0.31320721150073
                0.5456    0.76037674173753
 p    1 1.00
                0.1517                   1
 d    1 1.00
                  0.55                   1

2 0
 s    8 1.00
                  6665  0.00069158396281299
                  1000  0.0053257961529341
                   228   0.027060721042034
                 64.71    0.10165684614077
                 21.06     0.2745748236174
                 7.495    0.44829431892377
                 2.797    0.28490261071525
                0.5215   0.015194859206082
 s    8 1.00
                  6665  -0.00029326965268655
                  1000  -0.0023180354739745
                   228  -0.011499786038565
                 64.71  -0.046826727009787
                 21.06   -0.12846616875047
                 7.495   -0.30126627246289
                 2.797   -0.25563070233011
                0.5215      1.093793361012
 s    1 1.00
                0.1596                   1
 p    3 1.00
                 9.439   0.056979251590039
                 2.002    0.31320721150073
                0.5456    0.76037674173753
 p    1 1.00
                0.1517                   1
 d    1 1.00
                  0.55                   1

3 0
 s    8 1.00
                  6665  0.00069158396281299
                  1000  0.0053257961529341
                   228   0.027060721042034
                 64.71    0.10165684614077
                 21.06     0.2745748236174
                 7.495    0.44829431892377
                 2.797    0.28490261071525
                0.5215   0.015194859206082
 s    8 1.00
                  6665  -0.00029326965268655
                  1000  -0.0023180354739745
                   228  -0.011499786038565
                 64.71  -0.046826727009787
                 21.06   -0.12846616875047
                 7.495   -0.30126627246289
                 2.797   -0.25563070233011
                0.5215      1.093793361012
 s    1 1.00
                0.1596                   1
 p    3 1.00
                 9.439   0.056979251590039
                 2.002    0.31320721150073
                0.5456    0.76037674173753
 p    1 1.00
                0.1517                   1
 d    1 1.00
                  0.55                   1

4 0
 s    8 1.00
                  6665  0.00069158396281299
                  1000  0.0053257961529341
                   228   0.027060721042034
                 64.71    0.10165684614077
                 21.06     0.2745748236174
                 7.495    0.44829431892377
                 2.797    0.28490261071525
                0.5215   0.015194859206082
 s    8 1.00
                  6665  -0.00029326965268655
                  1000  -0.0023180354739745
                   228  -0.011499786038565
                 64.71  -0.046826727009787
                 21.06   -0.12846616875047
                 7.495   -0.30126627246289
                 2.797   -0.25563070233011
                0.5215      1.093793361012
 s    1 1.00
                0.1596                   1
 p    3 1.00
                 9.439   0.056979251590039
                 2.002    0.31320721150073
                0.5456    0.76037674173753
 p    1 1.00
                0.1517                   1
 d    1 1.00
                  0.55                   1

5 0
 s    8 1.00
                  6665  0.00069158396281299
                  1000  0.0053257961529341
                   228   0.027060721042034
                 64.71    0.10165684614077
                 21.06     0.2745748236174
                 7.495    0.44829431892377
                 2.797    0.28490261071525
                0.5215   0.015194859206082
 s    8 1.00
                  6665  -0.00029326965268655
                  1000  -0.0023180354739745
                   228  -0.011499786038565
                 64.71  -0.046826727009787
                 21.06   -0.12846616875047
                 7.495   -0.30126627246289
                 2.797   -0.25563070233011
                0.5215      1.093793361012
 s    1 1.00
                0.1596                   1
 p    3 1.00
                 9.439   0.056979251590039
                 2.002    0.31320721150073
                0.5456    0.76037674173753
 p    1 1.00
                0.1517                   1
 d    1 1.00
                  0.55                   1

6 0
 s    8 1.00
                 11720  0.00070964594651845
                  1759  0.0054672722921914
                 400.8   0.027823118610189
                 113.7    0.10474773971146
                 37.03    0.28292084635691
                 13.27    0.44849523869833
                 5.025    0.27081688521277
                 1.013    0.01545029160744
 s    8 1.00
                 11720  -0.00031444341168873
                  1759  -0.0024821376810179
                 400.8  -0.012316355381583
                 113.7  -0.050538917343672
                 37.03   -0.13938490331632
                 13.27   -0.32507749481778
                 5.025   -0.22984830758785
                 1.013     1.0953793467883
 s    1 1.00
                0.3023                   1
 p    3 1.00
                  17.7   0.062679166281506
                 3.854    0.33353656587936
                 1.046    0.74123964163973
 p    1 1.00
                0.2753                   1
 d    1 1.00
                 1.185                   1

7 0
 s    8 1.00
                 11720  0.00070964594651845
                  1759  0.0054672722921914
                 400.8   0.027823118610189
                 113.7    0.10474773971146
                 37.03    0.28292084635691
                 13.27    0.44849523869833
                 5.025    0.27081688521277
                 1.013    0.01545029160744
 s    8 1.00
                 11720  -0.00031444341168873
                  1759  -0.0024821376810179
                 400.8  -0.012316355381583
                 113.7  -0.050538917343672
                 37.03   -0.13938490331632
                 13.27   -0.32507749481778
                 5.025   -0.22984830758785
                 1.013     1.0953793467883
 s    1 1.00
                0.3023                   1
 p    3 1.00
                  17.7   0.062679166281506
                 3.854    0.33353656587936
                 1.046    0.74123964163973
 p    1 1.00
                0.2753                   1
 d    1 1.00
                 1.185                   1

8 0
 s    8 1.00
                 11720  0.00070964594651845
                  1759  0.0054672722921914
                 400.8   0.027823118610189
                 113.7    0.10474773971146
                 37.03    0.28292084635691
                 13.27    0.44849523869833
                 5.025    0.27081688521277
                 1.013    0.01545029160744
 s    8 1.00
                 11720  -0.00031444341168873
                  1759  -0.0024821376810179
                 400.8  -0.012316355381583
                 113.7  -0.050538917343672
                 37.03   -0.13938490331632
                 13.27   -0.32507749481778
                 5.025   -0.22984830758785
                 1.013     1.0953793467883
 s    1 1.00
                0.3023                   1
 p    3 1.00
                  17.7   0.062679166281506
                 3.854    0.33353656587936
                 1.046    0.74123964163973
 p    1 1.00
                0.2753                   1
 d    1 1.00
                 1.185                   1

9 0
 s    8 1.00
                 11720  0.00070964594651845
                  1759  0.0054672722921914
                 400.8   0.027823118610189
                 113.7    0.10474773971146
                 37.03    0.28292084635691
                 13.27    0.44849523869833
                 5.025    0.27081688521277
                 1.013    0.01545029160744
 s    8 1.00
                 11720  -0.00031444341168873
                  1759  -0.0024821376810179
                 400.8  -0.012316355381583
                 113.7  -0.050538917343672
                 37.03   -0.13938490331632
                 13.27   -0.32507749481778
                 5.025   -0.22984830758785
                 1.013     1.0953793467883
 s    1 1.00
                0.3023                   1
 p    3 1.00
                  17.7   0.062679166281506
                 3.854    0.33353656587936
                 1.046    0.74123964163973
 p    1 1.00
                0.2753                   1
 d    1 1.00
                 1.185                   1

10 0
 s    8 1.00
                  6665  0.00069158396281299
                  1000  0.0053257961529341
                   228   0.027060721042034
                 64.71    0.10165684614077
                 21.06     0.2745748236174
                 7.495    0.44829431892377
                 2.797    0.28490261071525
                0.5215   0.015194859206082
 s    8 1.00
                  6665  -0.00029326965268655
                  1000  -0.0023180354739745
                   228  -0.011499786038565
                 64.71  -0.046826727009787
                 21.06   -0.12846616875047
                 7.495   -0.30126627246289
                 2.797   -0.25563070233011
                0.5215      1.093793361012
 s    1 1.00
                0.1596                   1
 p    3 1.00
                 9.439   0.056979251590039
                 2.002    0.31320721150073
                0.5456    0.76037674173753
 p    1 1.00
                0.1517                   1
 d    1 1.00
                  0.55                   1

11 0
 s    8 1.00
                 11720  0.00070964594651845
                  1759  0.0054672722921914
                 400.8   0.027823118610189
                 113.7    0.10474773971146
                 37.03    0.28292084635691
                 13.27    0.44849523869833
                 5.025    0.27081688521277
                 1.013    0.01545029160744
 s    8 1.00
                 11720  -0.00031444341168873
                  1759  -0.0024821376810179
                 400.8  -0.012316355381583
                 113.7  -0.050538917343672
                 37.03   -0.13938490331632
                 13.27   -0.32507749481778
                 5.025   -0.22984830758785
                 1.013     1.0953793467883
 s    1 1.00
                0.3023                   1
 p    3 1.00
                  17.7   0.062679166281506
                 3.854    0.33353656587936
                 1.046    0.74123964163973
 p    1 1.00
                0.2753                   1
 d    1 1.00
                 1.185                   1

12 0
 s    3 1.00
                 13.01   0.033498726389998
                 1.962    0.23480080117413
                0.4446     0.8136829578829
 s    1 1.00
                 0.122                   1
 p    1 1.00
                 0.727                   1

13 0
 s    3 1.00
                 13.01   0.033498726389998
                 1.962    0.23480080117413
                0.4446     0.8136829578829
 s    1 1.00
                 0.122                   1
 p    1 1.00
                 0.727                   1

14 0
 s    3 1.00
                 13.01   0.033498726389998
                 1.962    0.23480080117413
                0.4446     0.8136829578829
 s    1 1.00
                 0.122                   1
 p    1 1.00
                 0.727                   1

15 0
 s    3 1.00
                 13.01   0.033498726389998
                 1.962    0.23480080117413
                0.4446     0.8136829578829
 s    1 1.00
                 0.122                   1
 p    1 1.00
                 0.727                   1

16 0
 s    8 1.00
                 11720  0.00070964594651845
                  1759  0.0054672722921914
                 400.8   0.027823118610189
                 113.7    0.10474773971146
                 37.03    0.28292084635691
                 13.27    0.44849523869833
                 5.025    0.27081688521277
                 1.013    0.01545029160744
 s    8 1.00
                 11720  -0.00031444341168873
                  1759  -0.0024821376810179
                 400.8  -0.012316355381583
                 113.7  -0.050538917343672
                 37.03   -0.13938490331632
                 13.27   -0.32507749481778
                 5.025   -0.22984830758785
                 1.013     1.0953793467883
 s    1 1.00
                0.3023                   1
 p    3 1.00
                  17.7   0.062679166281506
                 3.854    0.33353656587936
                 1.046    0.74123964163973
 p    1 1.00
                0.2753                   1
 d    1 1.00
                 1.185                   1

17 0
 s    3 1.00
                 13.01   0.033498726389998
                 1.962    0.23480080117413
                0.4446     0.8136829578829
 s    1 1.00
                 0.122                   1
 p    1 1.00
                 0.727                   1

18 0
 s    3 1.00
                 13.01   0.033498726389998
                 1.962    0.23480080117413
                0.4446     0.8136829578829
 s    1 1.00
                 0.122                   1
 p    1 1.00
                 0.727                   1

19 0
 s    3 1.00
                 13.01   0.033498726389998
                 1.962    0.23480080117413
                0.4446     0.8136829578829
 s    1 1.00
                 0.122                   1
 p    1 1.00
                 0.727                   1

20 0
 s    3 1.00
                 13.01   0.033498726389998
                 1.962    0.23480080117413
                0.4446     0.8136829578829
 s    1 1.00
                 0.122                   1
 p    1 1.00
                 0.727                   1

21 0
 s    3 1.00
                 13.01   0.033498726389998
                 1.962    0.23480080117413
                0.4446     0.8136829578829
 s    1 1.00
                 0.122                   1
 p    1 1.00
                 0.727                   1

22 0
 s    3 1.00
                 13.01   0.033498726389998
                 1.962    0.23480080117413
                0.4446     0.8136829578829
 s    1 1.00
                 0.122                   1
 p    1 1.00
                 0.727                   1

23 0
 s    3 1.00
                 13.01   0.033498726389998
                 1.962    0.23480080117413
                0.4446     0.8136829578829
 s    1 1.00
                 0.122                   1
 p    1 1.00
                 0.727                   1

24 0
 s    3 1.00
                 13.01   0.033498726389998
                 1.962    0.23480080117413
                0.4446     0.8136829578829
 s    1 1.00
                 0.122                   1
 p    1 1.00
                 0.727                   1

[5d]
[7f]
[9g]

[MO]
 Sym= A
 Ene=     -20.5892274
 Spin= Alpha
 Occup=    2.00000
   1    -0.0029565361763777
   2    0.0031641764459535
   3     0.080853304504627
   4    -0.014467214188311
   5    0.0085749270204364
   6    0.0070246034701775
   7    -0.030585696034685
   8     0.032076278434954
   9     0.017686042694042
  10    0.00082877608127735
  11    -0.0031612197761336
  12    0.00099825056234632
  13    -0.00019957823767692
  14    -0.0018431816463517
  15    0.00090788631582258
  16    -0.025930831708711
  17     -0.10643713147248
  18     0.038799526768847
  19    0.00098224299962994
  20      0.03024676664402
  21    -0.034141528848113
  22    0.0042783454257514
  23     0.058510861791739
  24    0.00039726803048978
  25    0.00040017964419374
  26    2.6927468702086e-05
  27    0.00032904983302532
  28    -0.00071963391465677
  29    0.00083143257941201
  30     0.010966759631307
  31    -0.0094964696973627
  32    -0.012738731648748
  33    0.0081020841353958
  34     0.006559320601073
  35     0.040665009795207
  36    -4.6811406547022e-05
  37    0.0028153278471988
  38    0.0036337101582677
  39    -0.014916537910827
  40    0.0096260170902895
  41    -0.025959230062588
  42    -0.016512371027066
  43    -0.0010201223741493
  44    4.8297436789911e-05
  45    0.0021491980482639
  46    -0.0044560839344727
  47    -0.0082263722092063
  48    0.0011226807516156
  49    -0.031492748015208
  50    -0.021557485556748
  51    -0.0017784476045996
  52    0.00049600753546786
  53    -0.00076872311510879
  54    0.00087892970715197
  55    0.00012031714653002
  56    0.00098683788535854
  57    0.00027897955680933
  58    2.7984965335217e-05
  59    0.0059651677680195
  60    -0.00039548806665591
  61    0.0023285022902659
  62    -0.00023309803881863
  63    -0.00096156598640281
  64     0.011838605583529
  65    -0.0027338151513619
  66    -7.0868552470893e-05
  67    -0.00046500148771227
  68    -0.00034511019386866
  69    5.1355615725189e-05
  70    -5.0134726429495e-06
  71    0.00043578870619848
  72    0.0014695481267482
  73    -0.0049378611788595
  74    -0.0015688097943066
  75    -0.0011799223821155
  76    0.00072925086272066
  77    -0.00025144691569323
  78    -0.004320489815812
  79    -0.0049805239033645
  80    -3.000527643216e-05
  81    -0.00012966033153075
  82    0.00018003582096712
  83    0.00010411818612451
  84    0.00017714610503496
  85    0.00093467359868768
  86    -0.0006022236604773
  87    -0.016219710789189
  88    0.0022114653215404
  89    -0.0031780361621662
  90    0.0014889738283551
  91    -0.00042300747654834
  92    -0.0068453043654996
  93    0.0047616018993178
  94    -0.0011738262894275
  95    -0.00039683946224904
  96    0.00034972434012839
  97    0.00061179452356013
  98    -0.00023379090402286
  99    -0.00071297147159278
 100    -0.071055831387122
 101    -0.069596906477985
 102      0.31873915594321
 103      0.44387689057567
 104      0.30661235204833
 105      0.25233634433608
 106      0.33925715131454
 107      0.23476510509923
 108    0.0060441608636908
 109    0.0088645261860596
 110    0.00084257216090529
 111      0.01234319579451
 112    0.0013735566476001
 113    0.00090745169148544
 114    0.0055445209676225
 115    -0.0038349879505849
 116    -0.0099171640536207
 117    0.0027529416640508
 118    0.0076907859006606
 119    -0.015989164452427
 120    0.0017404414651101
 121    -0.0033201582176751
 122    -0.00045700109914947
 123    2.9299904977102e-05
 124    9.0969178258028e-07
 125    -7.4919160351708e-05
 126    -0.0002216814937358
 127    0.00025319319369379
 128    0.0012927629485773
 129    -0.001424199786977
 130    -0.00066047847338881
 131    -0.00036961197183826
 132    0.0014619267568148
 133    -0.000482368909078
 134    0.0020150168693125
 135    -0.0029855209793206
 136    -0.00024132704810643
 137    -3.456800608349e-05
 138    8.6983399735573e-05
 139    -0.000167114439766
 140    -7.6555430754066e-05
 141    1.856105758024e-05
 142    0.00033972617137557
 143    0.00063268991981708
 144    -0.00071506069385568
 145    7.0980171936946e-05
 146    0.00047638432758705
 147    -0.0010401794220716
 148    -0.00022417657369642
 149    0.0001254431295444
 150    3.7600874846478e-05
 151    6.1510896542936e-07
 152    3.0043386442927e-05
 153    -1.0540906291228e-05
 154    -1.3911810295894e-05
 155    0.00052596600406418
 156    -0.0093281792121286
 157     0.000158872235693
 158    -6.3641949894991e-05
 159    -0.0012843123937878
 160     0.016477727674205
 161    0.0015761075928619
 162     0.014982351548305
 163     0.020653902872614
 164     0.013033774747443
 165    -0.00030853490282756
 166    -0.0021565890039475
 167    0.00015742200082265
 168    4.1704483393908e-05
 169    -0.00029770374483828
 170    0.0016673168524363
 171    -0.029469040245073
 172    0.00079588306651621
 173    0.00044005834411316
 174    -0.0045663618253245
 175    0.00078168467929428
 176    -0.00046640591933231
 177    -0.013862942192185
 178     0.006063575315051
 179    -0.00052406029501122
 180    0.00093712416186287
 181     0.013443815108082
 182    -0.00051211736764267
 183    0.0030461156356881
 184    -0.00013966206333017
 185    -7.4065825281475e-05
 186    -8.563378337733e-05
 187    0.00025989148099927
 188    -2.9775650062709e-05
 189    -0.0010747801007499
 190    -0.0056772685611421
 191    0.00073465209046435
 192    0.00013293715931179
 193    0.00052466717670437
 194    -0.0032567620709618
 195    0.0069434699599717
 196    -0.00059429626694301
 197    -0.00015823941381763
 198    -0.00037756456142259
 199    -0.0090125894060728
 200      0.02393809405874
 201    0.00025152559219292
 202    0.0002266543089296
 203    -0.0013356832979149
 204     0.047100769912639
 205     0.036419539819253
 206    -0.0029484979760503
 207    -0.0002717066533989
 208    0.00043571293409673
 209    -0.0011400567966799
 210     0.022379825074689
 211    -0.00042654690090598
 212    -0.00088605986072644
 213    0.0013847226130535
 214    -0.0026513632210422
 215    0.0048974851990977
 216    -7.7995135881955e-05
 217    -3.25620507605e-05
 218    0.00040589526739572
 219    -0.00012226865641959
 220    -0.0050370370678026
 221    1.138874993984e-06
 222    0.00031217415721068
 223    6.9530520546415e-05
 224    0.00016407032740682
 225    0.00040563680691302
 226    -2.4569550961133e-05
 227    -7.0363028860236e-05
 228    0.00024596617870898
