[Molden Format]
made by pyscf v[2.1.0]
[Atoms] (AU)
C   1   6     2.32946917320360    -0.63344186613258     2.37168943427863
C   2   6    -0.29669267073509     0.30039086476086     3.22269546913239
C   3   6    -2.28836574026819    -0.45088865332122     1.27613394164491
C   4   6    -1.50258360260379     0.48150977544368    -1.34195877174189
C   5   6     1.17077037184366    -0.47613539434541    -1.98531603085006
O   6   8     2.90615122545875     0.36947547242271    -0.06380660259594
O   7   8    -1.02480036707776    -0.78170410868758     5.58840958940515
O   8   8    -4.71990091118567     0.61286652808832     1.81907682367207
O   9   8    -3.21856263809797    -0.39246777018029    -3.24986406162526
C   10   6     2.14873576665020     0.54311106765225    -4.52137384344336
O   11   8     0.97527064535291    -0.64120108160005    -6.63217335814292
H   12   1     0.34900595904142    -0.48214283369541     6.76077111064570
H   13   1    -5.19719092819319     0.02690592056156     3.48444332437202
H   14   1    -0.83535721281623    -0.49952075513691    -6.37469817367093
H   15   1    -4.90002393620084     0.08874342853570    -2.71063260170675
O   16   8     4.22615893853768     0.10859122202201     4.07505454789134
H   17   1     4.38166639105427     1.93178575891951     3.94362220620171
H   18   1     2.36505838530753    -2.71537014510103     2.34202262384909
H   19   1    -0.22188597236806     2.38358526023277     3.34538215831753
H   20   1    -2.40897751016855    -2.53158672058258     1.22868291865708
H   21   1    -1.45404220764209     2.56502731408288    -1.31752650267738
H   22   1     1.14953551938192    -2.55944317338479    -2.06041941621865
H   23   1     1.89192576577406     2.61534694132780    -4.54974430175146
H   24   1     4.17463555575142     0.13656105839169    -4.65046670419078
[GTO]
1 0
 s    8 1.00
                  6665  0.00069158396281299
                  1000  0.0053257961529341
                   228   0.027060721042034
                 64.71    0.10165684614077
                 21.06     0.2745748236174
                 7.495    0.44829431892377
                 2.797    0.28490261071525
                0.5215   0.015194859206082
 s    8 1.00
                  6665  -0.00029326965268655
                  1000  -0.0023180354739745
                   228  -0.011499786038565
                 64.71  -0.046826727009787
                 21.06   -0.12846616875047
                 7.495   -0.30126627246289
                 2.797   -0.25563070233011
                0.5215      1.093793361012
 s    1 1.00
                0.1596                   1
 p    3 1.00
                 9.439   0.056979251590039
                 2.002    0.31320721150073
                0.5456    0.76037674173753
 p    1 1.00
                0.1517                   1
 d    1 1.00
                  0.55                   1

2 0
 s    8 1.00
                  6665  0.00069158396281299
                  1000  0.0053257961529341
                   228   0.027060721042034
                 64.71    0.10165684614077
                 21.06     0.2745748236174
                 7.495    0.44829431892377
                 2.797    0.28490261071525
                0.5215   0.015194859206082
 s    8 1.00
                  6665  -0.00029326965268655
                  1000  -0.0023180354739745
                   228  -0.011499786038565
                 64.71  -0.046826727009787
                 21.06   -0.12846616875047
                 7.495   -0.30126627246289
                 2.797   -0.25563070233011
                0.5215      1.093793361012
 s    1 1.00
                0.1596                   1
 p    3 1.00
                 9.439   0.056979251590039
                 2.002    0.31320721150073
                0.5456    0.76037674173753
 p    1 1.00
                0.1517                   1
 d    1 1.00
                  0.55                   1

3 0
 s    8 1.00
                  6665  0.00069158396281299
                  1000  0.0053257961529341
                   228   0.027060721042034
                 64.71    0.10165684614077
                 21.06     0.2745748236174
                 7.495    0.44829431892377
                 2.797    0.28490261071525
                0.5215   0.015194859206082
 s    8 1.00
                  6665  -0.00029326965268655
                  1000  -0.0023180354739745
                   228  -0.011499786038565
                 64.71  -0.046826727009787
                 21.06   -0.12846616875047
                 7.495   -0.30126627246289
                 2.797   -0.25563070233011
                0.5215      1.093793361012
 s    1 1.00
                0.1596                   1
 p    3 1.00
                 9.439   0.056979251590039
                 2.002    0.31320721150073
                0.5456    0.76037674173753
 p    1 1.00
                0.1517                   1
 d    1 1.00
                  0.55                   1

4 0
 s    8 1.00
                  6665  0.00069158396281299
                  1000  0.0053257961529341
                   228   0.027060721042034
                 64.71    0.10165684614077
                 21.06     0.2745748236174
                 7.495    0.44829431892377
                 2.797    0.28490261071525
                0.5215   0.015194859206082
 s    8 1.00
                  6665  -0.00029326965268655
                  1000  -0.0023180354739745
                   228  -0.011499786038565
                 64.71  -0.046826727009787
                 21.06   -0.12846616875047
                 7.495   -0.30126627246289
                 2.797   -0.25563070233011
                0.5215      1.093793361012
 s    1 1.00
                0.1596                   1
 p    3 1.00
                 9.439   0.056979251590039
                 2.002    0.31320721150073
                0.5456    0.76037674173753
 p    1 1.00
                0.1517                   1
 d    1 1.00
                  0.55                   1

5 0
 s    8 1.00
                  6665  0.00069158396281299
                  1000  0.0053257961529341
                   228   0.027060721042034
                 64.71    0.10165684614077
                 21.06     0.2745748236174
                 7.495    0.44829431892377
                 2.797    0.28490261071525
                0.5215   0.015194859206082
 s    8 1.00
                  6665  -0.00029326965268655
                  1000  -0.0023180354739745
                   228  -0.011499786038565
                 64.71  -0.046826727009787
                 21.06   -0.12846616875047
                 7.495   -0.30126627246289
                 2.797   -0.25563070233011
                0.5215      1.093793361012
 s    1 1.00
                0.1596                   1
 p    3 1.00
                 9.439   0.056979251590039
                 2.002    0.31320721150073
                0.5456    0.76037674173753
 p    1 1.00
                0.1517                   1
 d    1 1.00
                  0.55                   1

6 0
 s    8 1.00
                 11720  0.00070964594651845
                  1759  0.0054672722921914
                 400.8   0.027823118610189
                 113.7    0.10474773971146
                 37.03    0.28292084635691
                 13.27    0.44849523869833
                 5.025    0.27081688521277
                 1.013    0.01545029160744
 s    8 1.00
                 11720  -0.00031444341168873
                  1759  -0.0024821376810179
                 400.8  -0.012316355381583
                 113.7  -0.050538917343672
                 37.03   -0.13938490331632
                 13.27   -0.32507749481778
                 5.025   -0.22984830758785
                 1.013     1.0953793467883
 s    1 1.00
                0.3023                   1
 p    3 1.00
                  17.7   0.062679166281506
                 3.854    0.33353656587936
                 1.046    0.74123964163973
 p    1 1.00
                0.2753                   1
 d    1 1.00
                 1.185                   1

7 0
 s    8 1.00
                 11720  0.00070964594651845
                  1759  0.0054672722921914
                 400.8   0.027823118610189
                 113.7    0.10474773971146
                 37.03    0.28292084635691
                 13.27    0.44849523869833
                 5.025    0.27081688521277
                 1.013    0.01545029160744
 s    8 1.00
                 11720  -0.00031444341168873
                  1759  -0.0024821376810179
                 400.8  -0.012316355381583
                 113.7  -0.050538917343672
                 37.03   -0.13938490331632
                 13.27   -0.32507749481778
                 5.025   -0.22984830758785
                 1.013     1.0953793467883
 s    1 1.00
                0.3023                   1
 p    3 1.00
                  17.7   0.062679166281506
                 3.854    0.33353656587936
                 1.046    0.74123964163973
 p    1 1.00
                0.2753                   1
 d    1 1.00
                 1.185                   1

8 0
 s    8 1.00
                 11720  0.00070964594651845
                  1759  0.0054672722921914
                 400.8   0.027823118610189
                 113.7    0.10474773971146
                 37.03    0.28292084635691
                 13.27    0.44849523869833
                 5.025    0.27081688521277
                 1.013    0.01545029160744
 s    8 1.00
                 11720  -0.00031444341168873
                  1759  -0.0024821376810179
                 400.8  -0.012316355381583
                 113.7  -0.050538917343672
                 37.03   -0.13938490331632
                 13.27   -0.32507749481778
                 5.025   -0.22984830758785
                 1.013     1.0953793467883
 s    1 1.00
                0.3023                   1
 p    3 1.00
                  17.7   0.062679166281506
                 3.854    0.33353656587936
                 1.046    0.74123964163973
 p    1 1.00
                0.2753                   1
 d    1 1.00
                 1.185                   1

9 0
 s    8 1.00
                 11720  0.00070964594651845
                  1759  0.0054672722921914
                 400.8   0.027823118610189
                 113.7    0.10474773971146
                 37.03    0.28292084635691
                 13.27    0.44849523869833
                 5.025    0.27081688521277
                 1.013    0.01545029160744
 s    8 1.00
                 11720  -0.00031444341168873
                  1759  -0.0024821376810179
                 400.8  -0.012316355381583
                 113.7  -0.050538917343672
                 37.03   -0.13938490331632
                 13.27   -0.32507749481778
                 5.025   -0.22984830758785
                 1.013     1.0953793467883
 s    1 1.00
                0.3023                   1
 p    3 1.00
                  17.7   0.062679166281506
                 3.854    0.33353656587936
                 1.046    0.74123964163973
 p    1 1.00
                0.2753                   1
 d    1 1.00
                 1.185                   1

10 0
 s    8 1.00
                  6665  0.00069158396281299
                  1000  0.0053257961529341
                   228   0.027060721042034
                 64.71    0.10165684614077
                 21.06     0.2745748236174
                 7.495    0.44829431892377
                 2.797    0.28490261071525
                0.5215   0.015194859206082
 s    8 1.00
                  6665  -0.00029326965268655
                  1000  -0.0023180354739745
                   228  -0.011499786038565
                 64.71  -0.046826727009787
                 21.06   -0.12846616875047
                 7.495   -0.30126627246289
                 2.797   -0.25563070233011
                0.5215      1.093793361012
 s    1 1.00
                0.1596                   1
 p    3 1.00
                 9.439   0.056979251590039
                 2.002    0.31320721150073
                0.5456    0.76037674173753
 p    1 1.00
                0.1517                   1
 d    1 1.00
                  0.55                   1

11 0
 s    8 1.00
                 11720  0.00070964594651845
                  1759  0.0054672722921914
                 400.8   0.027823118610189
                 113.7    0.10474773971146
                 37.03    0.28292084635691
                 13.27    0.44849523869833
                 5.025    0.27081688521277
                 1.013    0.01545029160744
 s    8 1.00
                 11720  -0.00031444341168873
                  1759  -0.0024821376810179
                 400.8  -0.012316355381583
                 113.7  -0.050538917343672
                 37.03   -0.13938490331632
                 13.27   -0.32507749481778
                 5.025   -0.22984830758785
                 1.013     1.0953793467883
 s    1 1.00
                0.3023                   1
 p    3 1.00
                  17.7   0.062679166281506
                 3.854    0.33353656587936
                 1.046    0.74123964163973
 p    1 1.00
                0.2753                   1
 d    1 1.00
                 1.185                   1

12 0
 s    3 1.00
                 13.01   0.033498726389998
                 1.962    0.23480080117413
                0.4446     0.8136829578829
 s    1 1.00
                 0.122                   1
 p    1 1.00
                 0.727                   1

13 0
 s    3 1.00
                 13.01   0.033498726389998
                 1.962    0.23480080117413
                0.4446     0.8136829578829
 s    1 1.00
                 0.122                   1
 p    1 1.00
                 0.727                   1

14 0
 s    3 1.00
                 13.01   0.033498726389998
                 1.962    0.23480080117413
                0.4446     0.8136829578829
 s    1 1.00
                 0.122                   1
 p    1 1.00
                 0.727                   1

15 0
 s    3 1.00
                 13.01   0.033498726389998
                 1.962    0.23480080117413
                0.4446     0.8136829578829
 s    1 1.00
                 0.122                   1
 p    1 1.00
                 0.727                   1

16 0
 s    8 1.00
                 11720  0.00070964594651845
                  1759  0.0054672722921914
                 400.8   0.027823118610189
                 113.7    0.10474773971146
                 37.03    0.28292084635691
                 13.27    0.44849523869833
                 5.025    0.27081688521277
                 1.013    0.01545029160744
 s    8 1.00
                 11720  -0.00031444341168873
                  1759  -0.0024821376810179
                 400.8  -0.012316355381583
                 113.7  -0.050538917343672
                 37.03   -0.13938490331632
                 13.27   -0.32507749481778
                 5.025   -0.22984830758785
                 1.013     1.0953793467883
 s    1 1.00
                0.3023                   1
 p    3 1.00
                  17.7   0.062679166281506
                 3.854    0.33353656587936
                 1.046    0.74123964163973
 p    1 1.00
                0.2753                   1
 d    1 1.00
                 1.185                   1

17 0
 s    3 1.00
                 13.01   0.033498726389998
                 1.962    0.23480080117413
                0.4446     0.8136829578829
 s    1 1.00
                 0.122                   1
 p    1 1.00
                 0.727                   1

18 0
 s    3 1.00
                 13.01   0.033498726389998
                 1.962    0.23480080117413
                0.4446     0.8136829578829
 s    1 1.00
                 0.122                   1
 p    1 1.00
                 0.727                   1

19 0
 s    3 1.00
                 13.01   0.033498726389998
                 1.962    0.23480080117413
                0.4446     0.8136829578829
 s    1 1.00
                 0.122                   1
 p    1 1.00
                 0.727                   1

20 0
 s    3 1.00
                 13.01   0.033498726389998
                 1.962    0.23480080117413
                0.4446     0.8136829578829
 s    1 1.00
                 0.122                   1
 p    1 1.00
                 0.727                   1

21 0
 s    3 1.00
                 13.01   0.033498726389998
                 1.962    0.23480080117413
                0.4446     0.8136829578829
 s    1 1.00
                 0.122                   1
 p    1 1.00
                 0.727                   1

22 0
 s    3 1.00
                 13.01   0.033498726389998
                 1.962    0.23480080117413
                0.4446     0.8136829578829
 s    1 1.00
                 0.122                   1
 p    1 1.00
                 0.727                   1

23 0
 s    3 1.00
                 13.01   0.033498726389998
                 1.962    0.23480080117413
                0.4446     0.8136829578829
 s    1 1.00
                 0.122                   1
 p    1 1.00
                 0.727                   1

24 0
 s    3 1.00
                 13.01   0.033498726389998
                 1.962    0.23480080117413
                0.4446     0.8136829578829
 s    1 1.00
                 0.122                   1
 p    1 1.00
                 0.727                   1

[5d]
[7f]
[9g]

[MO]
 Sym= A
 Ene=     -20.5892274
 Spin= Alpha
 Occup=    2.00000
   1    0.00098340473133723
   2    -0.016361909283451
   3    -0.074199639170841
   4      0.01894997766479
   5    -0.013693579216392
   6    -0.019792469742635
   7     0.039229117896495
   8    -0.019789516476335
   9    -0.0080860214074381
  10    -0.004725129057648
  11    0.0076901602074147
  12    -0.0030420672865895
  13     0.010051171053749
  14    0.0038546127854281
  15    -0.0074987099416895
  16      0.20615348855816
  17      0.16447239067117
  18     -0.27046996746803
  19     -0.10444277990126
  20     -0.24534364283446
  21    -0.088937499727218
  22    -0.061400865309568
  23     -0.14020460608536
  24    0.0057864887546589
  25     0.026182125226964
  26     0.012978803621988
  27     0.013801724363427
  28     0.010964586737876
  29    -0.010165310088864
  30      0.20245441483011
  31      0.18756803604336
  32      0.23939632199543
  33      0.11119635005785
  34      0.26496312718197
  35     0.096727078223074
  36     0.075168984792717
  37     0.090116219455096
  38     0.007529966213806
  39     0.025588347427539
  40     0.010523574105249
  41     0.014649934571397
  42      0.01147372243691
  43    0.0018168180006767
  44    -0.018039333955142
  45    -0.087786530732623
  46      0.01696640183438
  47     0.015740100967184
  48    -0.017424378452428
  49    0.0038114848148439
  50     0.014094402944533
  51    -0.049705908522484
  52     0.010404568665288
  53    0.0088601673468678
  54    0.0038691367614391
  55    0.00087578140866771
  56    -0.0030456071438672
  57    -0.00093171515648634
  58    -0.0036962242457935
  59     0.015632002757454
  60    0.0046005895172837
  61    -0.0029423685412463
  62    -0.0051173598917028
  63    -0.0023006031283626
  64    0.0076729572500328
  65    0.0028459153049165
  66    -0.00015312733307319
  67    0.0008577613190485
  68    0.00043564861111551
  69    -0.00058910735907425
  70    -0.00064861172141574
  71    0.0002725456711893
  72    -0.00032527792555043
  73    -9.0742382949371e-06
  74    0.0038446299176572
  75    0.0041510921623857
  76    -0.0019442214645329
  77    0.0038890408663605
  78    0.0037428921247891
  79    0.0046334254619372
  80    -0.00013082386010795
  81    0.00018882086200307
  82    -0.00037575795805135
  83    -0.00017293071249794
  84    -0.00014019320054175
  85    -0.00046133353077151
  86    -0.0077717797800107
  87    -0.027807120282421
  88    -0.0047517468471257
  89    -0.0070353839425312
  90     0.019083774131944
  91     0.011286856408527
  92      0.00967797143982
  93     0.021977537572841
  94     0.006817379534727
  95    0.0045076700752956
  96    -0.000407396242907
  97    3.3981384729969e-05
  98     -0.00185026134735
  99    -0.00060301175537475
 100    -0.0084550293852755
 101    -0.018778580865701
 102    -0.021687365951131
 103    0.0060885150413451
 104    -0.003431948184354
 105    -0.044859655421382
 106    -0.0093022733532366
 107     -0.01474577683102
 108    -0.0027660509730233
 109    0.0035107751651189
 110    -0.0018246679803646
 111    0.0043581104218658
 112    0.00029218414651387
 113    0.0004573398181488
 114    0.0070545560974895
 115      0.01230332157361
 116     0.010522255000942
 117    0.0039970573632122
 118     0.015424244416726
 119     0.010168858948735
 120    -0.0023671104084653
 121     0.025157299210857
 122    -0.00043246053132131
 123    -0.00031553593976401
 124    0.00020882852203389
 125    -5.2956951214605e-05
 126    -7.7645373774085e-05
 127    0.00053012619207651
 128    0.0017427214249652
 129    -0.0058712601766717
 130    -0.00097039567719719
 131    -0.00041102213921134
 132    0.0012883280043962
 133    0.0064164977034426
 134    -0.0041450395056972
 135    -0.0036117858381803
 136    -0.00014592875981755
 137    0.00026472779565041
 138    -0.00061823999471469
 139    -0.00024666304876576
 140    0.00015118436805543
 141    -0.00036496097925464
 142    -0.000592626879504
 143    0.0036502988388451
 144    -0.00056218733683061
 145    6.1615768199415e-05
 146    -0.00056686932610711
 147    -0.0029706026569323
 148    0.00062854192896375
 149    -0.00032585369080249
 150    -2.7581090372344e-06
 151    -5.8020931395924e-05
 152    2.0635704511961e-05
 153    5.9451560752432e-05
 154    -3.8673695839949e-05
 155     0.023546430791296
 156     0.036294457965047
 157    -0.00047875583413624
 158    -0.0013347972158722
 159    0.0031352355022945
 160    -0.012400061820051
 161    -0.011925608795684
 162    -0.0016729525936388
 163    -0.00039952616368531
 164    -0.00026097290689672
 165    -0.0013239195099594
 166    -0.005859993943721
 167    -0.00031748623044269
 168    3.7997507587289e-05
 169    -5.9913848073877e-06
 170    0.0005835196151877
 171     0.012482829340072
 172    0.0010443933085713
 173    0.00030563966153754
 174    0.0016838303561139
 175    -0.00054943018952174
 176    0.0054159644673568
 177     0.021948809090806
 178     -0.01538059503587
 179    -0.0008149233990577
 180    -0.010656620523207
 181    -0.027122254426545
 182    0.0024214387539998
 183    -0.006100668893726
 184    0.00033833664138573
 185    -8.8551721928489e-06
 186    -0.00024322467702725
 187    -0.00045699941443592
 188    -7.5572248515838e-05
 189    -0.00047615982653306
 190    0.0021482335633576
 191    -0.00094174846947116
 192    -0.00026389096364331
 193    -0.0010903793935006
 194    -0.0052200983902774
 195    -0.016672993372058
 196    0.0019505792926145
 197    -0.00039100116128018
 198    -0.00055937933243013
 199    -0.020572429389547
 200    -0.043053775461783
 201    -0.0069075373367798
 202    -0.0046569610223401
 203    -0.0025530576031272
 204    -0.024631459999027
 205    -0.040771195356167
 206    0.0034810749436799
 207    0.0049896444751105
 208     0.006002914346914
 209    -0.0046197935030423
 210    -0.014127419480934
 211    0.00075748768780091
 212    0.00070590302498784
 213    -0.0015884222274115
 214    0.0023567463278881
 215     0.007441601392012
 216    6.6860145105518e-05
 217    -9.4632650901144e-05
 218    -0.00034050769163332
 219    0.00093441017238283
 220    0.0037314074982457
 221    -0.00017288029996695
 222    -0.00010085318761891
 223    -5.1371970796846e-05
 224    -0.00064391920742041
 225    -0.0037417122302727
 226    3.6035411539264e-05
 227    0.00011682438294182
 228    4.0607963287433e-05
