[Molden Format]
made by pyscf v[2.1.0]
[Atoms] (AU)
C   1   6     2.32946917320360    -0.63344186613258     2.37168943427863
C   2   6    -0.29669267073509     0.30039086476086     3.22269546913239
C   3   6    -2.28836574026819    -0.45088865332122     1.27613394164491
C   4   6    -1.50258360260379     0.48150977544368    -1.34195877174189
C   5   6     1.17077037184366    -0.47613539434541    -1.98531603085006
O   6   8     2.90615122545875     0.36947547242271    -0.06380660259594
O   7   8    -1.02480036707776    -0.78170410868758     5.58840958940515
O   8   8    -4.71990091118567     0.61286652808832     1.81907682367207
O   9   8    -3.21856263809797    -0.39246777018029    -3.24986406162526
C   10   6     2.14873576665020     0.54311106765225    -4.52137384344336
O   11   8     0.97527064535291    -0.64120108160005    -6.63217335814292
H   12   1     0.34900595904142    -0.48214283369541     6.76077111064570
H   13   1    -5.19719092819319     0.02690592056156     3.48444332437202
H   14   1    -0.83535721281623    -0.49952075513691    -6.37469817367093
H   15   1    -4.90002393620084     0.08874342853570    -2.71063260170675
O   16   8     4.22615893853768     0.10859122202201     4.07505454789134
H   17   1     4.38166639105427     1.93178575891951     3.94362220620171
H   18   1     2.36505838530753    -2.71537014510103     2.34202262384909
H   19   1    -0.22188597236806     2.38358526023277     3.34538215831753
H   20   1    -2.40897751016855    -2.53158672058258     1.22868291865708
H   21   1    -1.45404220764209     2.56502731408288    -1.31752650267738
H   22   1     1.14953551938192    -2.55944317338479    -2.06041941621865
H   23   1     1.89192576577406     2.61534694132780    -4.54974430175146
H   24   1     4.17463555575142     0.13656105839169    -4.65046670419078
[GTO]
1 0
 s    8 1.00
                  6665  0.00069158396281299
                  1000  0.0053257961529341
                   228   0.027060721042034
                 64.71    0.10165684614077
                 21.06     0.2745748236174
                 7.495    0.44829431892377
                 2.797    0.28490261071525
                0.5215   0.015194859206082
 s    8 1.00
                  6665  -0.00029326965268655
                  1000  -0.0023180354739745
                   228  -0.011499786038565
                 64.71  -0.046826727009787
                 21.06   -0.12846616875047
                 7.495   -0.30126627246289
                 2.797   -0.25563070233011
                0.5215      1.093793361012
 s    1 1.00
                0.1596                   1
 p    3 1.00
                 9.439   0.056979251590039
                 2.002    0.31320721150073
                0.5456    0.76037674173753
 p    1 1.00
                0.1517                   1
 d    1 1.00
                  0.55                   1

2 0
 s    8 1.00
                  6665  0.00069158396281299
                  1000  0.0053257961529341
                   228   0.027060721042034
                 64.71    0.10165684614077
                 21.06     0.2745748236174
                 7.495    0.44829431892377
                 2.797    0.28490261071525
                0.5215   0.015194859206082
 s    8 1.00
                  6665  -0.00029326965268655
                  1000  -0.0023180354739745
                   228  -0.011499786038565
                 64.71  -0.046826727009787
                 21.06   -0.12846616875047
                 7.495   -0.30126627246289
                 2.797   -0.25563070233011
                0.5215      1.093793361012
 s    1 1.00
                0.1596                   1
 p    3 1.00
                 9.439   0.056979251590039
                 2.002    0.31320721150073
                0.5456    0.76037674173753
 p    1 1.00
                0.1517                   1
 d    1 1.00
                  0.55                   1

3 0
 s    8 1.00
                  6665  0.00069158396281299
                  1000  0.0053257961529341
                   228   0.027060721042034
                 64.71    0.10165684614077
                 21.06     0.2745748236174
                 7.495    0.44829431892377
                 2.797    0.28490261071525
                0.5215   0.015194859206082
 s    8 1.00
                  6665  -0.00029326965268655
                  1000  -0.0023180354739745
                   228  -0.011499786038565
                 64.71  -0.046826727009787
                 21.06   -0.12846616875047
                 7.495   -0.30126627246289
                 2.797   -0.25563070233011
                0.5215      1.093793361012
 s    1 1.00
                0.1596                   1
 p    3 1.00
                 9.439   0.056979251590039
                 2.002    0.31320721150073
                0.5456    0.76037674173753
 p    1 1.00
                0.1517                   1
 d    1 1.00
                  0.55                   1

4 0
 s    8 1.00
                  6665  0.00069158396281299
                  1000  0.0053257961529341
                   228   0.027060721042034
                 64.71    0.10165684614077
                 21.06     0.2745748236174
                 7.495    0.44829431892377
                 2.797    0.28490261071525
                0.5215   0.015194859206082
 s    8 1.00
                  6665  -0.00029326965268655
                  1000  -0.0023180354739745
                   228  -0.011499786038565
                 64.71  -0.046826727009787
                 21.06   -0.12846616875047
                 7.495   -0.30126627246289
                 2.797   -0.25563070233011
                0.5215      1.093793361012
 s    1 1.00
                0.1596                   1
 p    3 1.00
                 9.439   0.056979251590039
                 2.002    0.31320721150073
                0.5456    0.76037674173753
 p    1 1.00
                0.1517                   1
 d    1 1.00
                  0.55                   1

5 0
 s    8 1.00
                  6665  0.00069158396281299
                  1000  0.0053257961529341
                   228   0.027060721042034
                 64.71    0.10165684614077
                 21.06     0.2745748236174
                 7.495    0.44829431892377
                 2.797    0.28490261071525
                0.5215   0.015194859206082
 s    8 1.00
                  6665  -0.00029326965268655
                  1000  -0.0023180354739745
                   228  -0.011499786038565
                 64.71  -0.046826727009787
                 21.06   -0.12846616875047
                 7.495   -0.30126627246289
                 2.797   -0.25563070233011
                0.5215      1.093793361012
 s    1 1.00
                0.1596                   1
 p    3 1.00
                 9.439   0.056979251590039
                 2.002    0.31320721150073
                0.5456    0.76037674173753
 p    1 1.00
                0.1517                   1
 d    1 1.00
                  0.55                   1

6 0
 s    8 1.00
                 11720  0.00070964594651845
                  1759  0.0054672722921914
                 400.8   0.027823118610189
                 113.7    0.10474773971146
                 37.03    0.28292084635691
                 13.27    0.44849523869833
                 5.025    0.27081688521277
                 1.013    0.01545029160744
 s    8 1.00
                 11720  -0.00031444341168873
                  1759  -0.0024821376810179
                 400.8  -0.012316355381583
                 113.7  -0.050538917343672
                 37.03   -0.13938490331632
                 13.27   -0.32507749481778
                 5.025   -0.22984830758785
                 1.013     1.0953793467883
 s    1 1.00
                0.3023                   1
 p    3 1.00
                  17.7   0.062679166281506
                 3.854    0.33353656587936
                 1.046    0.74123964163973
 p    1 1.00
                0.2753                   1
 d    1 1.00
                 1.185                   1

7 0
 s    8 1.00
                 11720  0.00070964594651845
                  1759  0.0054672722921914
                 400.8   0.027823118610189
                 113.7    0.10474773971146
                 37.03    0.28292084635691
                 13.27    0.44849523869833
                 5.025    0.27081688521277
                 1.013    0.01545029160744
 s    8 1.00
                 11720  -0.00031444341168873
                  1759  -0.0024821376810179
                 400.8  -0.012316355381583
                 113.7  -0.050538917343672
                 37.03   -0.13938490331632
                 13.27   -0.32507749481778
                 5.025   -0.22984830758785
                 1.013     1.0953793467883
 s    1 1.00
                0.3023                   1
 p    3 1.00
                  17.7   0.062679166281506
                 3.854    0.33353656587936
                 1.046    0.74123964163973
 p    1 1.00
                0.2753                   1
 d    1 1.00
                 1.185                   1

8 0
 s    8 1.00
                 11720  0.00070964594651845
                  1759  0.0054672722921914
                 400.8   0.027823118610189
                 113.7    0.10474773971146
                 37.03    0.28292084635691
                 13.27    0.44849523869833
                 5.025    0.27081688521277
                 1.013    0.01545029160744
 s    8 1.00
                 11720  -0.00031444341168873
                  1759  -0.0024821376810179
                 400.8  -0.012316355381583
                 113.7  -0.050538917343672
                 37.03   -0.13938490331632
                 13.27   -0.32507749481778
                 5.025   -0.22984830758785
                 1.013     1.0953793467883
 s    1 1.00
                0.3023                   1
 p    3 1.00
                  17.7   0.062679166281506
                 3.854    0.33353656587936
                 1.046    0.74123964163973
 p    1 1.00
                0.2753                   1
 d    1 1.00
                 1.185                   1

9 0
 s    8 1.00
                 11720  0.00070964594651845
                  1759  0.0054672722921914
                 400.8   0.027823118610189
                 113.7    0.10474773971146
                 37.03    0.28292084635691
                 13.27    0.44849523869833
                 5.025    0.27081688521277
                 1.013    0.01545029160744
 s    8 1.00
                 11720  -0.00031444341168873
                  1759  -0.0024821376810179
                 400.8  -0.012316355381583
                 113.7  -0.050538917343672
                 37.03   -0.13938490331632
                 13.27   -0.32507749481778
                 5.025   -0.22984830758785
                 1.013     1.0953793467883
 s    1 1.00
                0.3023                   1
 p    3 1.00
                  17.7   0.062679166281506
                 3.854    0.33353656587936
                 1.046    0.74123964163973
 p    1 1.00
                0.2753                   1
 d    1 1.00
                 1.185                   1

10 0
 s    8 1.00
                  6665  0.00069158396281299
                  1000  0.0053257961529341
                   228   0.027060721042034
                 64.71    0.10165684614077
                 21.06     0.2745748236174
                 7.495    0.44829431892377
                 2.797    0.28490261071525
                0.5215   0.015194859206082
 s    8 1.00
                  6665  -0.00029326965268655
                  1000  -0.0023180354739745
                   228  -0.011499786038565
                 64.71  -0.046826727009787
                 21.06   -0.12846616875047
                 7.495   -0.30126627246289
                 2.797   -0.25563070233011
                0.5215      1.093793361012
 s    1 1.00
                0.1596                   1
 p    3 1.00
                 9.439   0.056979251590039
                 2.002    0.31320721150073
                0.5456    0.76037674173753
 p    1 1.00
                0.1517                   1
 d    1 1.00
                  0.55                   1

11 0
 s    8 1.00
                 11720  0.00070964594651845
                  1759  0.0054672722921914
                 400.8   0.027823118610189
                 113.7    0.10474773971146
                 37.03    0.28292084635691
                 13.27    0.44849523869833
                 5.025    0.27081688521277
                 1.013    0.01545029160744
 s    8 1.00
                 11720  -0.00031444341168873
                  1759  -0.0024821376810179
                 400.8  -0.012316355381583
                 113.7  -0.050538917343672
                 37.03   -0.13938490331632
                 13.27   -0.32507749481778
                 5.025   -0.22984830758785
                 1.013     1.0953793467883
 s    1 1.00
                0.3023                   1
 p    3 1.00
                  17.7   0.062679166281506
                 3.854    0.33353656587936
                 1.046    0.74123964163973
 p    1 1.00
                0.2753                   1
 d    1 1.00
                 1.185                   1

12 0
 s    3 1.00
                 13.01   0.033498726389998
                 1.962    0.23480080117413
                0.4446     0.8136829578829
 s    1 1.00
                 0.122                   1
 p    1 1.00
                 0.727                   1

13 0
 s    3 1.00
                 13.01   0.033498726389998
                 1.962    0.23480080117413
                0.4446     0.8136829578829
 s    1 1.00
                 0.122                   1
 p    1 1.00
                 0.727                   1

14 0
 s    3 1.00
                 13.01   0.033498726389998
                 1.962    0.23480080117413
                0.4446     0.8136829578829
 s    1 1.00
                 0.122                   1
 p    1 1.00
                 0.727                   1

15 0
 s    3 1.00
                 13.01   0.033498726389998
                 1.962    0.23480080117413
                0.4446     0.8136829578829
 s    1 1.00
                 0.122                   1
 p    1 1.00
                 0.727                   1

16 0
 s    8 1.00
                 11720  0.00070964594651845
                  1759  0.0054672722921914
                 400.8   0.027823118610189
                 113.7    0.10474773971146
                 37.03    0.28292084635691
                 13.27    0.44849523869833
                 5.025    0.27081688521277
                 1.013    0.01545029160744
 s    8 1.00
                 11720  -0.00031444341168873
                  1759  -0.0024821376810179
                 400.8  -0.012316355381583
                 113.7  -0.050538917343672
                 37.03   -0.13938490331632
                 13.27   -0.32507749481778
                 5.025   -0.22984830758785
                 1.013     1.0953793467883
 s    1 1.00
                0.3023                   1
 p    3 1.00
                  17.7   0.062679166281506
                 3.854    0.33353656587936
                 1.046    0.74123964163973
 p    1 1.00
                0.2753                   1
 d    1 1.00
                 1.185                   1

17 0
 s    3 1.00
                 13.01   0.033498726389998
                 1.962    0.23480080117413
                0.4446     0.8136829578829
 s    1 1.00
                 0.122                   1
 p    1 1.00
                 0.727                   1

18 0
 s    3 1.00
                 13.01   0.033498726389998
                 1.962    0.23480080117413
                0.4446     0.8136829578829
 s    1 1.00
                 0.122                   1
 p    1 1.00
                 0.727                   1

19 0
 s    3 1.00
                 13.01   0.033498726389998
                 1.962    0.23480080117413
                0.4446     0.8136829578829
 s    1 1.00
                 0.122                   1
 p    1 1.00
                 0.727                   1

20 0
 s    3 1.00
                 13.01   0.033498726389998
                 1.962    0.23480080117413
                0.4446     0.8136829578829
 s    1 1.00
                 0.122                   1
 p    1 1.00
                 0.727                   1

21 0
 s    3 1.00
                 13.01   0.033498726389998
                 1.962    0.23480080117413
                0.4446     0.8136829578829
 s    1 1.00
                 0.122                   1
 p    1 1.00
                 0.727                   1

22 0
 s    3 1.00
                 13.01   0.033498726389998
                 1.962    0.23480080117413
                0.4446     0.8136829578829
 s    1 1.00
                 0.122                   1
 p    1 1.00
                 0.727                   1

23 0
 s    3 1.00
                 13.01   0.033498726389998
                 1.962    0.23480080117413
                0.4446     0.8136829578829
 s    1 1.00
                 0.122                   1
 p    1 1.00
                 0.727                   1

24 0
 s    3 1.00
                 13.01   0.033498726389998
                 1.962    0.23480080117413
                0.4446     0.8136829578829
 s    1 1.00
                 0.122                   1
 p    1 1.00
                 0.727                   1

[5d]
[7f]
[9g]

[MO]
 Sym= A
 Ene=     -20.5892274
 Spin= Alpha
 Occup=    2.00000
   1    0.0034508175671939
   2     0.014365255553374
   3    -0.0030219665364786
   4    0.0017105495168811
   5    -0.0092692455571843
   6    -0.011822692562097
   7     0.019439267322108
   8    -0.022449613281412
   9    -0.0027397715563781
  10    0.00079721408008949
  11    -0.00038542737827061
  12    -0.00049125256754666
  13    0.0011627095197462
  14    -0.0018380974009198
  15    -0.0036482110160334
  16    -0.0055964819801029
  17     0.045375848350463
  18    0.0023358881719394
  19    0.0011539705179192
  20    -0.00029376048095746
  21    0.0089826032659863
  22    -0.0071883444247791
  23    -0.0075841506733486
  24    0.0016752881499148
  25    -0.00074468390759943
  26    0.00081173871301847
  27    0.00022310049799521
  28    -6.1713388426928e-05
  29    -0.00020749225129078
  30    0.0080806535135714
  31     0.018284143546046
  32    0.0043170299099033
  33    -0.0056801805000646
  34    -0.010861117746757
  35    -0.0079789943557231
  36    -0.0064241227638179
  37    -0.017954506894961
  38    0.00013893510583946
  39    -0.0021183400533779
  40    0.00091880459170537
  41    0.0015167875776058
  42    0.00060402493681139
  43    0.0028161276129117
  44     0.022496872538906
  45     0.040893759775765
  46     0.034489157734155
  47    -0.0069980678247034
  48    -0.0054643559216324
  49     0.033714671376989
  50    -0.0013219154263452
  51    -0.0087713304135746
  52    0.0058699891302679
  53    -0.00058051767127532
  54    -0.0037385805379917
  55    0.0081261423485548
  56     0.013126978459105
  57     0.009052976618791
  58     -0.20111259855217
  59      -0.1228938217054
  60    -0.010755172821326
  61      0.37797446215966
  62    -0.0081860749564537
  63    0.0083849264227473
  64       0.1583554657306
  65    -0.029003061990944
  66     0.011212178565194
  67    -0.0011747323571966
  68    0.0013832953013014
  69     0.021422659718521
  70    -0.00058442688748329
  71    0.0013706708011816
  72    0.0097142258523652
  73     0.018469746571584
  74    -0.013315022608694
  75    -0.016756767957533
  76    -0.012210196860935
  77     -0.01205912043603
  78    -0.034629188669165
  79    -0.0088628886985447
  80    0.0014844191054075
  81    -0.00065290685700268
  82    -0.0059977319247191
  83    0.0029702307926956
  84    -0.0042383520757809
  85    0.00055454057379806
  86    0.00084549666467656
  87    -0.005056098936247
  88    -0.0001804275799159
  89    -0.0007360601428743
  90    0.00021552870611645
  91    -0.0030142834883776
  92    -0.00091875655962696
  93     0.002974106850925
  94    -0.00020990575695336
  95    -1.7172650465713e-05
  96    0.00012145937584413
  97    -8.4772202601778e-05
  98    -8.8189464257728e-05
  99    0.00039927994965066
 100    -0.0001123614711824
 101    -0.0032218324297178
 102    -0.0021102190991167
 103    0.0027793066000863
 104    0.00044048994199325
 105    -0.0015464081126395
 106    0.0054270424839413
 107    0.0012541329060719
 108    0.0001011292312767
 109    -2.8458208048452e-05
 110    0.00025309335643888
 111    -7.1095001870567e-05
 112    0.0001213422730591
 113    -8.4721610137189e-05
 114    0.00087202650410721
 115    0.0059255736044551
 116     0.002865575726743
 117    -0.00038275579864366
 118    0.0036283452746673
 119    0.0017858438612133
 120    -0.0021380753556184
 121    0.0033259932503838
 122    -0.00010471589634535
 123    3.1353115637435e-05
 124    -0.00057234553506719
 125    0.00085267415360729
 126    0.00033525382684758
 127    0.0032293075555114
 128     0.022134402202045
 129     0.010881897023277
 130    -0.0078074179508789
 131    -0.0044823564862037
 132      0.02935052903996
 133    -0.0085159802509481
 134    -0.0010169848445052
 135    0.0068259172999249
 136    0.0040537381386828
 137    -0.0011394413881247
 138     0.012926484067986
 139     0.010250761906557
 140    -0.0038829962287395
 141    0.00025871520030107
 142    0.0030550739066783
 143    0.0056731521078467
 144    0.00075518259087347
 145    0.00049160125595597
 146    0.0071301229410251
 147    0.0015712379785408
 148    -0.0017946888260681
 149     0.004483034887914
 150    0.00066501714952978
 151    -3.7546670229343e-05
 152    0.00027537176849969
 153    0.00029978744101873
 154    -0.00052862961972888
 155    0.00015516127348916
 156    -0.00028089985304746
 157    -0.00010052190295712
 158    1.9671730746456e-06
 159    -0.00044004549925757
 160    -0.00013994533326121
 161    0.0011259881046973
 162    0.00025020477407455
 163    7.1498293291785e-05
 164    -0.00015504488159015
 165    0.0020350634036114
 166    -0.0025891114409456
 167    0.00072827931521882
 168    0.00041581507666528
 169    0.00099192405373804
 170    -0.00025966004109776
 171    0.0029540838557833
 172    -0.00055332303847768
 173    -0.00015355470892685
 174    0.00015556040420206
 175    0.00014690652377399
 176    -0.0012885896346189
 177    -0.0018494682359362
 178    0.0026692253037223
 179    0.0030761005261494
 180    0.0015747241478431
 181    0.0011283072647659
 182    0.0078616055870558
 183    0.0030004541802297
 184    -0.00020551777413872
 185    -9.0273437569293e-05
 186    7.6156993983645e-05
 187    -0.0003419183195963
 188    2.0573988019106e-05
 189    0.0015018611568953
 190    -0.0052398240186949
 191    0.00011208929664095
 192    0.00068073045501604
 193    0.00055481903542792
 194    0.0053178784540302
 195    -0.014519242948533
 196    -0.00031942372250447
 197    0.0010862055169165
 198    -0.00025662266299752
 199    0.00021240265466342
 200    -0.00012428891930772
 201    -0.0001836001923591
 202    2.6863790985942e-05
 203    0.00052264061168462
 204    0.0052253319418473
 205    -0.0066733620675863
 206    2.7331312474432e-05
 207    0.00097114460575462
 208    0.00017925145231315
 209    -0.021074482231885
 210    -0.045688663035862
 211    -0.00041300533894042
 212    -0.0010514001440909
 213    2.0445404866114e-05
 214     -0.43622998857913
 215     -0.14082384633863
 216    0.00025100943118431
 217    -0.034370517206766
 218    -0.0024571702324598
 219    -0.018521739989334
 220    -0.044552359720205
 221    0.00040909331686483
 222    -0.0014057099774748
 223    -0.00010803223035114
 224      0.01105759671279
 225     0.013777546255511
 226    -0.00013990949525765
 227    -0.0016578804737997
 228    0.0021067841324597
