[Molden Format]
made by pyscf v[2.1.0]
[Atoms] (AU)
C   1   6     2.32946917320360    -0.63344186613258     2.37168943427863
C   2   6    -0.29669267073509     0.30039086476086     3.22269546913239
C   3   6    -2.28836574026819    -0.45088865332122     1.27613394164491
C   4   6    -1.50258360260379     0.48150977544368    -1.34195877174189
C   5   6     1.17077037184366    -0.47613539434541    -1.98531603085006
O   6   8     2.90615122545875     0.36947547242271    -0.06380660259594
O   7   8    -1.02480036707776    -0.78170410868758     5.58840958940515
O   8   8    -4.71990091118567     0.61286652808832     1.81907682367207
O   9   8    -3.21856263809797    -0.39246777018029    -3.24986406162526
C   10   6     2.14873576665020     0.54311106765225    -4.52137384344336
O   11   8     0.97527064535291    -0.64120108160005    -6.63217335814292
H   12   1     0.34900595904142    -0.48214283369541     6.76077111064570
H   13   1    -5.19719092819319     0.02690592056156     3.48444332437202
H   14   1    -0.83535721281623    -0.49952075513691    -6.37469817367093
H   15   1    -4.90002393620084     0.08874342853570    -2.71063260170675
O   16   8     4.22615893853768     0.10859122202201     4.07505454789134
H   17   1     4.38166639105427     1.93178575891951     3.94362220620171
H   18   1     2.36505838530753    -2.71537014510103     2.34202262384909
H   19   1    -0.22188597236806     2.38358526023277     3.34538215831753
H   20   1    -2.40897751016855    -2.53158672058258     1.22868291865708
H   21   1    -1.45404220764209     2.56502731408288    -1.31752650267738
H   22   1     1.14953551938192    -2.55944317338479    -2.06041941621865
H   23   1     1.89192576577406     2.61534694132780    -4.54974430175146
H   24   1     4.17463555575142     0.13656105839169    -4.65046670419078
[GTO]
1 0
 s    8 1.00
                  6665  0.00069158396281299
                  1000  0.0053257961529341
                   228   0.027060721042034
                 64.71    0.10165684614077
                 21.06     0.2745748236174
                 7.495    0.44829431892377
                 2.797    0.28490261071525
                0.5215   0.015194859206082
 s    8 1.00
                  6665  -0.00029326965268655
                  1000  -0.0023180354739745
                   228  -0.011499786038565
                 64.71  -0.046826727009787
                 21.06   -0.12846616875047
                 7.495   -0.30126627246289
                 2.797   -0.25563070233011
                0.5215      1.093793361012
 s    1 1.00
                0.1596                   1
 p    3 1.00
                 9.439   0.056979251590039
                 2.002    0.31320721150073
                0.5456    0.76037674173753
 p    1 1.00
                0.1517                   1
 d    1 1.00
                  0.55                   1

2 0
 s    8 1.00
                  6665  0.00069158396281299
                  1000  0.0053257961529341
                   228   0.027060721042034
                 64.71    0.10165684614077
                 21.06     0.2745748236174
                 7.495    0.44829431892377
                 2.797    0.28490261071525
                0.5215   0.015194859206082
 s    8 1.00
                  6665  -0.00029326965268655
                  1000  -0.0023180354739745
                   228  -0.011499786038565
                 64.71  -0.046826727009787
                 21.06   -0.12846616875047
                 7.495   -0.30126627246289
                 2.797   -0.25563070233011
                0.5215      1.093793361012
 s    1 1.00
                0.1596                   1
 p    3 1.00
                 9.439   0.056979251590039
                 2.002    0.31320721150073
                0.5456    0.76037674173753
 p    1 1.00
                0.1517                   1
 d    1 1.00
                  0.55                   1

3 0
 s    8 1.00
                  6665  0.00069158396281299
                  1000  0.0053257961529341
                   228   0.027060721042034
                 64.71    0.10165684614077
                 21.06     0.2745748236174
                 7.495    0.44829431892377
                 2.797    0.28490261071525
                0.5215   0.015194859206082
 s    8 1.00
                  6665  -0.00029326965268655
                  1000  -0.0023180354739745
                   228  -0.011499786038565
                 64.71  -0.046826727009787
                 21.06   -0.12846616875047
                 7.495   -0.30126627246289
                 2.797   -0.25563070233011
                0.5215      1.093793361012
 s    1 1.00
                0.1596                   1
 p    3 1.00
                 9.439   0.056979251590039
                 2.002    0.31320721150073
                0.5456    0.76037674173753
 p    1 1.00
                0.1517                   1
 d    1 1.00
                  0.55                   1

4 0
 s    8 1.00
                  6665  0.00069158396281299
                  1000  0.0053257961529341
                   228   0.027060721042034
                 64.71    0.10165684614077
                 21.06     0.2745748236174
                 7.495    0.44829431892377
                 2.797    0.28490261071525
                0.5215   0.015194859206082
 s    8 1.00
                  6665  -0.00029326965268655
                  1000  -0.0023180354739745
                   228  -0.011499786038565
                 64.71  -0.046826727009787
                 21.06   -0.12846616875047
                 7.495   -0.30126627246289
                 2.797   -0.25563070233011
                0.5215      1.093793361012
 s    1 1.00
                0.1596                   1
 p    3 1.00
                 9.439   0.056979251590039
                 2.002    0.31320721150073
                0.5456    0.76037674173753
 p    1 1.00
                0.1517                   1
 d    1 1.00
                  0.55                   1

5 0
 s    8 1.00
                  6665  0.00069158396281299
                  1000  0.0053257961529341
                   228   0.027060721042034
                 64.71    0.10165684614077
                 21.06     0.2745748236174
                 7.495    0.44829431892377
                 2.797    0.28490261071525
                0.5215   0.015194859206082
 s    8 1.00
                  6665  -0.00029326965268655
                  1000  -0.0023180354739745
                   228  -0.011499786038565
                 64.71  -0.046826727009787
                 21.06   -0.12846616875047
                 7.495   -0.30126627246289
                 2.797   -0.25563070233011
                0.5215      1.093793361012
 s    1 1.00
                0.1596                   1
 p    3 1.00
                 9.439   0.056979251590039
                 2.002    0.31320721150073
                0.5456    0.76037674173753
 p    1 1.00
                0.1517                   1
 d    1 1.00
                  0.55                   1

6 0
 s    8 1.00
                 11720  0.00070964594651845
                  1759  0.0054672722921914
                 400.8   0.027823118610189
                 113.7    0.10474773971146
                 37.03    0.28292084635691
                 13.27    0.44849523869833
                 5.025    0.27081688521277
                 1.013    0.01545029160744
 s    8 1.00
                 11720  -0.00031444341168873
                  1759  -0.0024821376810179
                 400.8  -0.012316355381583
                 113.7  -0.050538917343672
                 37.03   -0.13938490331632
                 13.27   -0.32507749481778
                 5.025   -0.22984830758785
                 1.013     1.0953793467883
 s    1 1.00
                0.3023                   1
 p    3 1.00
                  17.7   0.062679166281506
                 3.854    0.33353656587936
                 1.046    0.74123964163973
 p    1 1.00
                0.2753                   1
 d    1 1.00
                 1.185                   1

7 0
 s    8 1.00
                 11720  0.00070964594651845
                  1759  0.0054672722921914
                 400.8   0.027823118610189
                 113.7    0.10474773971146
                 37.03    0.28292084635691
                 13.27    0.44849523869833
                 5.025    0.27081688521277
                 1.013    0.01545029160744
 s    8 1.00
                 11720  -0.00031444341168873
                  1759  -0.0024821376810179
                 400.8  -0.012316355381583
                 113.7  -0.050538917343672
                 37.03   -0.13938490331632
                 13.27   -0.32507749481778
                 5.025   -0.22984830758785
                 1.013     1.0953793467883
 s    1 1.00
                0.3023                   1
 p    3 1.00
                  17.7   0.062679166281506
                 3.854    0.33353656587936
                 1.046    0.74123964163973
 p    1 1.00
                0.2753                   1
 d    1 1.00
                 1.185                   1

8 0
 s    8 1.00
                 11720  0.00070964594651845
                  1759  0.0054672722921914
                 400.8   0.027823118610189
                 113.7    0.10474773971146
                 37.03    0.28292084635691
                 13.27    0.44849523869833
                 5.025    0.27081688521277
                 1.013    0.01545029160744
 s    8 1.00
                 11720  -0.00031444341168873
                  1759  -0.0024821376810179
                 400.8  -0.012316355381583
                 113.7  -0.050538917343672
                 37.03   -0.13938490331632
                 13.27   -0.32507749481778
                 5.025   -0.22984830758785
                 1.013     1.0953793467883
 s    1 1.00
                0.3023                   1
 p    3 1.00
                  17.7   0.062679166281506
                 3.854    0.33353656587936
                 1.046    0.74123964163973
 p    1 1.00
                0.2753                   1
 d    1 1.00
                 1.185                   1

9 0
 s    8 1.00
                 11720  0.00070964594651845
                  1759  0.0054672722921914
                 400.8   0.027823118610189
                 113.7    0.10474773971146
                 37.03    0.28292084635691
                 13.27    0.44849523869833
                 5.025    0.27081688521277
                 1.013    0.01545029160744
 s    8 1.00
                 11720  -0.00031444341168873
                  1759  -0.0024821376810179
                 400.8  -0.012316355381583
                 113.7  -0.050538917343672
                 37.03   -0.13938490331632
                 13.27   -0.32507749481778
                 5.025   -0.22984830758785
                 1.013     1.0953793467883
 s    1 1.00
                0.3023                   1
 p    3 1.00
                  17.7   0.062679166281506
                 3.854    0.33353656587936
                 1.046    0.74123964163973
 p    1 1.00
                0.2753                   1
 d    1 1.00
                 1.185                   1

10 0
 s    8 1.00
                  6665  0.00069158396281299
                  1000  0.0053257961529341
                   228   0.027060721042034
                 64.71    0.10165684614077
                 21.06     0.2745748236174
                 7.495    0.44829431892377
                 2.797    0.28490261071525
                0.5215   0.015194859206082
 s    8 1.00
                  6665  -0.00029326965268655
                  1000  -0.0023180354739745
                   228  -0.011499786038565
                 64.71  -0.046826727009787
                 21.06   -0.12846616875047
                 7.495   -0.30126627246289
                 2.797   -0.25563070233011
                0.5215      1.093793361012
 s    1 1.00
                0.1596                   1
 p    3 1.00
                 9.439   0.056979251590039
                 2.002    0.31320721150073
                0.5456    0.76037674173753
 p    1 1.00
                0.1517                   1
 d    1 1.00
                  0.55                   1

11 0
 s    8 1.00
                 11720  0.00070964594651845
                  1759  0.0054672722921914
                 400.8   0.027823118610189
                 113.7    0.10474773971146
                 37.03    0.28292084635691
                 13.27    0.44849523869833
                 5.025    0.27081688521277
                 1.013    0.01545029160744
 s    8 1.00
                 11720  -0.00031444341168873
                  1759  -0.0024821376810179
                 400.8  -0.012316355381583
                 113.7  -0.050538917343672
                 37.03   -0.13938490331632
                 13.27   -0.32507749481778
                 5.025   -0.22984830758785
                 1.013     1.0953793467883
 s    1 1.00
                0.3023                   1
 p    3 1.00
                  17.7   0.062679166281506
                 3.854    0.33353656587936
                 1.046    0.74123964163973
 p    1 1.00
                0.2753                   1
 d    1 1.00
                 1.185                   1

12 0
 s    3 1.00
                 13.01   0.033498726389998
                 1.962    0.23480080117413
                0.4446     0.8136829578829
 s    1 1.00
                 0.122                   1
 p    1 1.00
                 0.727                   1

13 0
 s    3 1.00
                 13.01   0.033498726389998
                 1.962    0.23480080117413
                0.4446     0.8136829578829
 s    1 1.00
                 0.122                   1
 p    1 1.00
                 0.727                   1

14 0
 s    3 1.00
                 13.01   0.033498726389998
                 1.962    0.23480080117413
                0.4446     0.8136829578829
 s    1 1.00
                 0.122                   1
 p    1 1.00
                 0.727                   1

15 0
 s    3 1.00
                 13.01   0.033498726389998
                 1.962    0.23480080117413
                0.4446     0.8136829578829
 s    1 1.00
                 0.122                   1
 p    1 1.00
                 0.727                   1

16 0
 s    8 1.00
                 11720  0.00070964594651845
                  1759  0.0054672722921914
                 400.8   0.027823118610189
                 113.7    0.10474773971146
                 37.03    0.28292084635691
                 13.27    0.44849523869833
                 5.025    0.27081688521277
                 1.013    0.01545029160744
 s    8 1.00
                 11720  -0.00031444341168873
                  1759  -0.0024821376810179
                 400.8  -0.012316355381583
                 113.7  -0.050538917343672
                 37.03   -0.13938490331632
                 13.27   -0.32507749481778
                 5.025   -0.22984830758785
                 1.013     1.0953793467883
 s    1 1.00
                0.3023                   1
 p    3 1.00
                  17.7   0.062679166281506
                 3.854    0.33353656587936
                 1.046    0.74123964163973
 p    1 1.00
                0.2753                   1
 d    1 1.00
                 1.185                   1

17 0
 s    3 1.00
                 13.01   0.033498726389998
                 1.962    0.23480080117413
                0.4446     0.8136829578829
 s    1 1.00
                 0.122                   1
 p    1 1.00
                 0.727                   1

18 0
 s    3 1.00
                 13.01   0.033498726389998
                 1.962    0.23480080117413
                0.4446     0.8136829578829
 s    1 1.00
                 0.122                   1
 p    1 1.00
                 0.727                   1

19 0
 s    3 1.00
                 13.01   0.033498726389998
                 1.962    0.23480080117413
                0.4446     0.8136829578829
 s    1 1.00
                 0.122                   1
 p    1 1.00
                 0.727                   1

20 0
 s    3 1.00
                 13.01   0.033498726389998
                 1.962    0.23480080117413
                0.4446     0.8136829578829
 s    1 1.00
                 0.122                   1
 p    1 1.00
                 0.727                   1

21 0
 s    3 1.00
                 13.01   0.033498726389998
                 1.962    0.23480080117413
                0.4446     0.8136829578829
 s    1 1.00
                 0.122                   1
 p    1 1.00
                 0.727                   1

22 0
 s    3 1.00
                 13.01   0.033498726389998
                 1.962    0.23480080117413
                0.4446     0.8136829578829
 s    1 1.00
                 0.122                   1
 p    1 1.00
                 0.727                   1

23 0
 s    3 1.00
                 13.01   0.033498726389998
                 1.962    0.23480080117413
                0.4446     0.8136829578829
 s    1 1.00
                 0.122                   1
 p    1 1.00
                 0.727                   1

24 0
 s    3 1.00
                 13.01   0.033498726389998
                 1.962    0.23480080117413
                0.4446     0.8136829578829
 s    1 1.00
                 0.122                   1
 p    1 1.00
                 0.727                   1

[5d]
[7f]
[9g]

[MO]
 Sym= A
 Ene=     -20.5892274
 Spin= Alpha
 Occup=    2.00000
   1    -2.7043848050708e-05
   2    -0.018419458405746
   3    -0.048757672014024
   4    -0.023975013033152
   5    -0.012206431145387
   6     0.017240376867189
   7    -0.015237594826713
   8    -0.040496167048689
   9     0.029803729112063
  10     0.032722679061643
  11    0.0023822083488231
  12    0.0039335938921682
  13    -0.018922849704538
  14    -0.005032904241649
  15    0.00076937911491684
  16    -0.022126356226727
  17    -0.086778634854211
  18    -0.043412252300756
  19    0.0078164977265815
  20    0.0057616020492066
  21     0.028649599546729
  22     0.040284344873199
  23     0.014558995769479
  24    -0.00068064482589331
  25    0.00020302081560487
  26    0.0026644310753638
  27    -0.00028316589885196
  28    -0.00090076814072973
  29    -0.0034093691458269
  30    0.0029349860990603
  31     0.078613002227854
  32    0.0086481511705795
  33     0.006056841943406
  34     0.010193694184676
  35     0.023885092601305
  36     0.017883400914472
  37     0.038941165972637
  38    0.0035430847288943
  39     0.001646853263979
  40    0.0012946029083979
  41    -0.00096954117694662
  42    0.0012452779065053
  43    4.1391487102884e-05
  44    0.0015734931291619
  45     0.003446050031131
  46    0.0011471924110708
  47    -0.00027943111292171
  48    0.00067157236628029
  49    -0.0024357753669948
  50    -0.0094901270617604
  51    -0.011799669360426
  52     0.000483175253977
  53    -5.0482988580443e-05
  54    0.00077905304225401
  55    -0.00023364970863391
  56    -0.00048704296308063
  57    -0.001378051251314
  58    -0.011358213560676
  59    -0.00085269364384565
  60    -0.013615565727088
  61    -0.0060548220190167
  62    -0.015114653688845
  63    0.0035210671364184
  64    0.0033833844309916
  65     -0.00253713412743
  66     0.002254716678292
  67    -0.00046278828971124
  68    -0.0016655961356287
  69    -0.00017675192422619
  70    -0.0016059597223917
  71    -0.0012024080006784
  72     0.019474635335718
  73      0.06462113692749
  74    -0.0013923839205071
  75    -0.014488313562053
  76     0.037556809301681
  77    -0.0021335745794496
  78     -0.01365774423493
  79     0.047590013408674
  80    -0.00024357242551629
  81    -0.0020297026437812
  82    -0.00046389150396795
  83    -0.0010140856907958
  84    -0.0002639600336441
  85    0.00022995095622841
  86    -0.0064244772493129
  87    -0.0098514296974664
  88    -0.015913361570176
  89    -0.0048038829327511
  90    -0.0030303584458384
  91    -0.017372191826171
  92    -0.004323383020939
  93    -0.022101450801833
  94    0.00032105037906013
  95    0.00030862156249974
  96    -0.00023086452578633
  97    -0.00016162523151636
  98    -0.00067539704384499
  99    0.00033501800353055
 100    -0.0016788594714548
 101    -0.011015661655471
 102    -0.0066934680952233
 103    0.00089745408669669
 104    -0.0017895787127738
 105    -0.010734336158868
 106    7.1865855230313e-05
 107    -0.0044072750714886
 108    -0.00011127111281245
 109    6.6497211233559e-05
 110    4.3426605675478e-05
 111    0.00017669609734048
 112    8.7075089407285e-05
 113    0.0003563539121452
 114    -0.00011236861660824
 115    -0.007516523123606
 116    -0.0011865686399617
 117    -0.00044254587278492
 118    -0.00080323467638219
 119    -0.0026252848852113
 120    -0.0013834843505526
 121    0.00082090443787826
 122    2.0297215272479e-05
 123    -5.6783836730238e-05
 124    -5.3333070070733e-05
 125    8.3159650664899e-05
 126    -6.961899930265e-05
 127    0.00022387364831074
 128    0.0040054125538875
 129    0.0029136064990122
 130    -0.0019409609104618
 131    -0.0020192352376596
 132    0.0035717824518587
 133    -0.00022788828797623
 134    -0.0011081967374067
 135    -4.0804344349177e-05
 136    -0.0014349103427128
 137    -0.00074391557103237
 138    -0.00038236181310103
 139    0.00024657312278193
 140    7.0767602682559e-05
 141    -0.00018678153900685
 142    -0.0014342611110075
 143    -0.001358951117769
 144    -0.00069367907655983
 145    -0.0006858377322927
 146    -0.0037162867550272
 147    -0.00077235663155351
 148    -0.00041011263430294
 149    -0.0028231532162507
 150    0.00012584541824427
 151    5.4451320659482e-05
 152    -1.7035380965857e-05
 153    4.4149510168859e-05
 154    -9.8161712230713e-06
 155    0.0032792978482085
 156     0.042612986136802
 157    0.0039848992064519
 158    -0.00012786915193509
 159    -0.0029316206194918
 160    -0.00052225418851431
 161    0.00036657272412413
 162    -0.00016084745550986
 163    0.00037471188922405
 164    6.5087602732612e-05
 165    -0.00061196705626974
 166    0.00029228903767719
 167    -0.00010311749665122
 168    -5.3403089912508e-06
 169    -0.00015958371635854
 170    0.00083853386376008
 171    0.0034992453592198
 172    0.00023458660018232
 173    -6.9760215726604e-05
 174    0.00011741079758448
 175    -0.0035992994305241
 176     0.060994585276083
 177      0.10449159626326
 178     -0.38001145915989
 179     0.012374679050203
 180      0.49486693227668
 181     -0.29402055729346
 182     0.017766390747341
 183       0.3700231609183
 184    -0.013930599542144
 185    -0.0034164556862491
 186    0.0070605755093607
 187    0.0067696242149863
 188    -0.005508815979566
 189    -0.021536417393233
 190    0.0013747292932528
 191    -0.017452181021157
 192    0.0048163339759812
 193     0.022329520902975
 194    0.0017263992079173
 195    -0.003588728707108
 196    -0.00072415245311846
 197    7.1152902106224e-06
 198    -0.0003151660798882
 199    -0.010537232201043
 200    0.00057706272073411
 201    -0.0013606322011554
 202    0.00095019715915799
 203    0.00015743136537325
 204    -0.0013151313871299
 205    0.0017354771943352
 206    0.00012671441051589
 207    0.00014948560331846
 208    -0.00010878380927658
 209    0.0013757756304164
 210    0.00032469956132094
 211    0.00010138782456562
 212    6.7446207426175e-05
 213    0.00026787659650231
 214    -0.0014184916577581
 215    0.0035229152548836
 216    -0.00071796509503403
 217    0.00014043635779621
 218    -0.0004159153564605
 219    0.00045524251815871
 220    -0.0018157647598842
 221    -0.00022954239502461
 222    7.1246114491575e-06
 223    -0.00011255777378957
 224    0.0016212135472639
 225    -0.00061849116798196
 226    5.8405454064534e-05
 227    -0.00011081364462747
 228    -0.00025212248391012
