[Molden Format]
made by pyscf v[2.1.0]
[Atoms] (AU)
C   1   6     2.32946917320360    -0.63344186613258     2.37168943427863
C   2   6    -0.29669267073509     0.30039086476086     3.22269546913239
C   3   6    -2.28836574026819    -0.45088865332122     1.27613394164491
C   4   6    -1.50258360260379     0.48150977544368    -1.34195877174189
C   5   6     1.17077037184366    -0.47613539434541    -1.98531603085006
O   6   8     2.90615122545875     0.36947547242271    -0.06380660259594
O   7   8    -1.02480036707776    -0.78170410868758     5.58840958940515
O   8   8    -4.71990091118567     0.61286652808832     1.81907682367207
O   9   8    -3.21856263809797    -0.39246777018029    -3.24986406162526
C   10   6     2.14873576665020     0.54311106765225    -4.52137384344336
O   11   8     0.97527064535291    -0.64120108160005    -6.63217335814292
H   12   1     0.34900595904142    -0.48214283369541     6.76077111064570
H   13   1    -5.19719092819319     0.02690592056156     3.48444332437202
H   14   1    -0.83535721281623    -0.49952075513691    -6.37469817367093
H   15   1    -4.90002393620084     0.08874342853570    -2.71063260170675
O   16   8     4.22615893853768     0.10859122202201     4.07505454789134
H   17   1     4.38166639105427     1.93178575891951     3.94362220620171
H   18   1     2.36505838530753    -2.71537014510103     2.34202262384909
H   19   1    -0.22188597236806     2.38358526023277     3.34538215831753
H   20   1    -2.40897751016855    -2.53158672058258     1.22868291865708
H   21   1    -1.45404220764209     2.56502731408288    -1.31752650267738
H   22   1     1.14953551938192    -2.55944317338479    -2.06041941621865
H   23   1     1.89192576577406     2.61534694132780    -4.54974430175146
H   24   1     4.17463555575142     0.13656105839169    -4.65046670419078
[GTO]
1 0
 s    8 1.00
                  6665  0.00069158396281299
                  1000  0.0053257961529341
                   228   0.027060721042034
                 64.71    0.10165684614077
                 21.06     0.2745748236174
                 7.495    0.44829431892377
                 2.797    0.28490261071525
                0.5215   0.015194859206082
 s    8 1.00
                  6665  -0.00029326965268655
                  1000  -0.0023180354739745
                   228  -0.011499786038565
                 64.71  -0.046826727009787
                 21.06   -0.12846616875047
                 7.495   -0.30126627246289
                 2.797   -0.25563070233011
                0.5215      1.093793361012
 s    1 1.00
                0.1596                   1
 p    3 1.00
                 9.439   0.056979251590039
                 2.002    0.31320721150073
                0.5456    0.76037674173753
 p    1 1.00
                0.1517                   1
 d    1 1.00
                  0.55                   1

2 0
 s    8 1.00
                  6665  0.00069158396281299
                  1000  0.0053257961529341
                   228   0.027060721042034
                 64.71    0.10165684614077
                 21.06     0.2745748236174
                 7.495    0.44829431892377
                 2.797    0.28490261071525
                0.5215   0.015194859206082
 s    8 1.00
                  6665  -0.00029326965268655
                  1000  -0.0023180354739745
                   228  -0.011499786038565
                 64.71  -0.046826727009787
                 21.06   -0.12846616875047
                 7.495   -0.30126627246289
                 2.797   -0.25563070233011
                0.5215      1.093793361012
 s    1 1.00
                0.1596                   1
 p    3 1.00
                 9.439   0.056979251590039
                 2.002    0.31320721150073
                0.5456    0.76037674173753
 p    1 1.00
                0.1517                   1
 d    1 1.00
                  0.55                   1

3 0
 s    8 1.00
                  6665  0.00069158396281299
                  1000  0.0053257961529341
                   228   0.027060721042034
                 64.71    0.10165684614077
                 21.06     0.2745748236174
                 7.495    0.44829431892377
                 2.797    0.28490261071525
                0.5215   0.015194859206082
 s    8 1.00
                  6665  -0.00029326965268655
                  1000  -0.0023180354739745
                   228  -0.011499786038565
                 64.71  -0.046826727009787
                 21.06   -0.12846616875047
                 7.495   -0.30126627246289
                 2.797   -0.25563070233011
                0.5215      1.093793361012
 s    1 1.00
                0.1596                   1
 p    3 1.00
                 9.439   0.056979251590039
                 2.002    0.31320721150073
                0.5456    0.76037674173753
 p    1 1.00
                0.1517                   1
 d    1 1.00
                  0.55                   1

4 0
 s    8 1.00
                  6665  0.00069158396281299
                  1000  0.0053257961529341
                   228   0.027060721042034
                 64.71    0.10165684614077
                 21.06     0.2745748236174
                 7.495    0.44829431892377
                 2.797    0.28490261071525
                0.5215   0.015194859206082
 s    8 1.00
                  6665  -0.00029326965268655
                  1000  -0.0023180354739745
                   228  -0.011499786038565
                 64.71  -0.046826727009787
                 21.06   -0.12846616875047
                 7.495   -0.30126627246289
                 2.797   -0.25563070233011
                0.5215      1.093793361012
 s    1 1.00
                0.1596                   1
 p    3 1.00
                 9.439   0.056979251590039
                 2.002    0.31320721150073
                0.5456    0.76037674173753
 p    1 1.00
                0.1517                   1
 d    1 1.00
                  0.55                   1

5 0
 s    8 1.00
                  6665  0.00069158396281299
                  1000  0.0053257961529341
                   228   0.027060721042034
                 64.71    0.10165684614077
                 21.06     0.2745748236174
                 7.495    0.44829431892377
                 2.797    0.28490261071525
                0.5215   0.015194859206082
 s    8 1.00
                  6665  -0.00029326965268655
                  1000  -0.0023180354739745
                   228  -0.011499786038565
                 64.71  -0.046826727009787
                 21.06   -0.12846616875047
                 7.495   -0.30126627246289
                 2.797   -0.25563070233011
                0.5215      1.093793361012
 s    1 1.00
                0.1596                   1
 p    3 1.00
                 9.439   0.056979251590039
                 2.002    0.31320721150073
                0.5456    0.76037674173753
 p    1 1.00
                0.1517                   1
 d    1 1.00
                  0.55                   1

6 0
 s    8 1.00
                 11720  0.00070964594651845
                  1759  0.0054672722921914
                 400.8   0.027823118610189
                 113.7    0.10474773971146
                 37.03    0.28292084635691
                 13.27    0.44849523869833
                 5.025    0.27081688521277
                 1.013    0.01545029160744
 s    8 1.00
                 11720  -0.00031444341168873
                  1759  -0.0024821376810179
                 400.8  -0.012316355381583
                 113.7  -0.050538917343672
                 37.03   -0.13938490331632
                 13.27   -0.32507749481778
                 5.025   -0.22984830758785
                 1.013     1.0953793467883
 s    1 1.00
                0.3023                   1
 p    3 1.00
                  17.7   0.062679166281506
                 3.854    0.33353656587936
                 1.046    0.74123964163973
 p    1 1.00
                0.2753                   1
 d    1 1.00
                 1.185                   1

7 0
 s    8 1.00
                 11720  0.00070964594651845
                  1759  0.0054672722921914
                 400.8   0.027823118610189
                 113.7    0.10474773971146
                 37.03    0.28292084635691
                 13.27    0.44849523869833
                 5.025    0.27081688521277
                 1.013    0.01545029160744
 s    8 1.00
                 11720  -0.00031444341168873
                  1759  -0.0024821376810179
                 400.8  -0.012316355381583
                 113.7  -0.050538917343672
                 37.03   -0.13938490331632
                 13.27   -0.32507749481778
                 5.025   -0.22984830758785
                 1.013     1.0953793467883
 s    1 1.00
                0.3023                   1
 p    3 1.00
                  17.7   0.062679166281506
                 3.854    0.33353656587936
                 1.046    0.74123964163973
 p    1 1.00
                0.2753                   1
 d    1 1.00
                 1.185                   1

8 0
 s    8 1.00
                 11720  0.00070964594651845
                  1759  0.0054672722921914
                 400.8   0.027823118610189
                 113.7    0.10474773971146
                 37.03    0.28292084635691
                 13.27    0.44849523869833
                 5.025    0.27081688521277
                 1.013    0.01545029160744
 s    8 1.00
                 11720  -0.00031444341168873
                  1759  -0.0024821376810179
                 400.8  -0.012316355381583
                 113.7  -0.050538917343672
                 37.03   -0.13938490331632
                 13.27   -0.32507749481778
                 5.025   -0.22984830758785
                 1.013     1.0953793467883
 s    1 1.00
                0.3023                   1
 p    3 1.00
                  17.7   0.062679166281506
                 3.854    0.33353656587936
                 1.046    0.74123964163973
 p    1 1.00
                0.2753                   1
 d    1 1.00
                 1.185                   1

9 0
 s    8 1.00
                 11720  0.00070964594651845
                  1759  0.0054672722921914
                 400.8   0.027823118610189
                 113.7    0.10474773971146
                 37.03    0.28292084635691
                 13.27    0.44849523869833
                 5.025    0.27081688521277
                 1.013    0.01545029160744
 s    8 1.00
                 11720  -0.00031444341168873
                  1759  -0.0024821376810179
                 400.8  -0.012316355381583
                 113.7  -0.050538917343672
                 37.03   -0.13938490331632
                 13.27   -0.32507749481778
                 5.025   -0.22984830758785
                 1.013     1.0953793467883
 s    1 1.00
                0.3023                   1
 p    3 1.00
                  17.7   0.062679166281506
                 3.854    0.33353656587936
                 1.046    0.74123964163973
 p    1 1.00
                0.2753                   1
 d    1 1.00
                 1.185                   1

10 0
 s    8 1.00
                  6665  0.00069158396281299
                  1000  0.0053257961529341
                   228   0.027060721042034
                 64.71    0.10165684614077
                 21.06     0.2745748236174
                 7.495    0.44829431892377
                 2.797    0.28490261071525
                0.5215   0.015194859206082
 s    8 1.00
                  6665  -0.00029326965268655
                  1000  -0.0023180354739745
                   228  -0.011499786038565
                 64.71  -0.046826727009787
                 21.06   -0.12846616875047
                 7.495   -0.30126627246289
                 2.797   -0.25563070233011
                0.5215      1.093793361012
 s    1 1.00
                0.1596                   1
 p    3 1.00
                 9.439   0.056979251590039
                 2.002    0.31320721150073
                0.5456    0.76037674173753
 p    1 1.00
                0.1517                   1
 d    1 1.00
                  0.55                   1

11 0
 s    8 1.00
                 11720  0.00070964594651845
                  1759  0.0054672722921914
                 400.8   0.027823118610189
                 113.7    0.10474773971146
                 37.03    0.28292084635691
                 13.27    0.44849523869833
                 5.025    0.27081688521277
                 1.013    0.01545029160744
 s    8 1.00
                 11720  -0.00031444341168873
                  1759  -0.0024821376810179
                 400.8  -0.012316355381583
                 113.7  -0.050538917343672
                 37.03   -0.13938490331632
                 13.27   -0.32507749481778
                 5.025   -0.22984830758785
                 1.013     1.0953793467883
 s    1 1.00
                0.3023                   1
 p    3 1.00
                  17.7   0.062679166281506
                 3.854    0.33353656587936
                 1.046    0.74123964163973
 p    1 1.00
                0.2753                   1
 d    1 1.00
                 1.185                   1

12 0
 s    3 1.00
                 13.01   0.033498726389998
                 1.962    0.23480080117413
                0.4446     0.8136829578829
 s    1 1.00
                 0.122                   1
 p    1 1.00
                 0.727                   1

13 0
 s    3 1.00
                 13.01   0.033498726389998
                 1.962    0.23480080117413
                0.4446     0.8136829578829
 s    1 1.00
                 0.122                   1
 p    1 1.00
                 0.727                   1

14 0
 s    3 1.00
                 13.01   0.033498726389998
                 1.962    0.23480080117413
                0.4446     0.8136829578829
 s    1 1.00
                 0.122                   1
 p    1 1.00
                 0.727                   1

15 0
 s    3 1.00
                 13.01   0.033498726389998
                 1.962    0.23480080117413
                0.4446     0.8136829578829
 s    1 1.00
                 0.122                   1
 p    1 1.00
                 0.727                   1

16 0
 s    8 1.00
                 11720  0.00070964594651845
                  1759  0.0054672722921914
                 400.8   0.027823118610189
                 113.7    0.10474773971146
                 37.03    0.28292084635691
                 13.27    0.44849523869833
                 5.025    0.27081688521277
                 1.013    0.01545029160744
 s    8 1.00
                 11720  -0.00031444341168873
                  1759  -0.0024821376810179
                 400.8  -0.012316355381583
                 113.7  -0.050538917343672
                 37.03   -0.13938490331632
                 13.27   -0.32507749481778
                 5.025   -0.22984830758785
                 1.013     1.0953793467883
 s    1 1.00
                0.3023                   1
 p    3 1.00
                  17.7   0.062679166281506
                 3.854    0.33353656587936
                 1.046    0.74123964163973
 p    1 1.00
                0.2753                   1
 d    1 1.00
                 1.185                   1

17 0
 s    3 1.00
                 13.01   0.033498726389998
                 1.962    0.23480080117413
                0.4446     0.8136829578829
 s    1 1.00
                 0.122                   1
 p    1 1.00
                 0.727                   1

18 0
 s    3 1.00
                 13.01   0.033498726389998
                 1.962    0.23480080117413
                0.4446     0.8136829578829
 s    1 1.00
                 0.122                   1
 p    1 1.00
                 0.727                   1

19 0
 s    3 1.00
                 13.01   0.033498726389998
                 1.962    0.23480080117413
                0.4446     0.8136829578829
 s    1 1.00
                 0.122                   1
 p    1 1.00
                 0.727                   1

20 0
 s    3 1.00
                 13.01   0.033498726389998
                 1.962    0.23480080117413
                0.4446     0.8136829578829
 s    1 1.00
                 0.122                   1
 p    1 1.00
                 0.727                   1

21 0
 s    3 1.00
                 13.01   0.033498726389998
                 1.962    0.23480080117413
                0.4446     0.8136829578829
 s    1 1.00
                 0.122                   1
 p    1 1.00
                 0.727                   1

22 0
 s    3 1.00
                 13.01   0.033498726389998
                 1.962    0.23480080117413
                0.4446     0.8136829578829
 s    1 1.00
                 0.122                   1
 p    1 1.00
                 0.727                   1

23 0
 s    3 1.00
                 13.01   0.033498726389998
                 1.962    0.23480080117413
                0.4446     0.8136829578829
 s    1 1.00
                 0.122                   1
 p    1 1.00
                 0.727                   1

24 0
 s    3 1.00
                 13.01   0.033498726389998
                 1.962    0.23480080117413
                0.4446     0.8136829578829
 s    1 1.00
                 0.122                   1
 p    1 1.00
                 0.727                   1

[5d]
[7f]
[9g]

[MO]
 Sym= A
 Ene=     -20.5892274
 Spin= Alpha
 Occup=    2.00000
   1    0.0015852586105283
   2    0.0035759100373877
   3    -0.020398388108652
   4    -0.0013252035912782
   5    0.0024221356360515
   6    0.0012998154470798
   7    0.0041555417294903
   8    -0.0062706689002857
   9    -0.00022971774724458
  10    -0.00018384268089827
  11    -0.001414815646432
  12    0.00033278260127792
  13    -0.0014898489399576
  14    0.00066236390179197
  15    -0.00082245834107287
  16    -0.0074370741023023
  17    -0.0024707054266713
  18    0.0040222293809041
  19    -0.0077476863889606
  20    0.0063300456866391
  21     0.016085638856056
  22    -0.010974775231041
  23    -0.010087245426675
  24    -0.0025342363859075
  25    -0.00035807033252724
  26    0.00010675006331754
  27    0.00024218327162132
  28    0.00094382681671996
  29    -0.0031822059878353
  30    -0.021735808393871
  31    -0.030872196687937
  32    -0.015554454198328
  33    -0.0049948390150322
  34     0.032928777720563
  35     -0.01892750114855
  36    0.0044444952045411
  37     0.020047667275775
  38    -0.0030375132381967
  39    0.0010267725381854
  40    -0.013967985467487
  41    -0.0099091598917707
  42    0.0042951610013797
  43    -0.0088061560782184
  44      0.20030169918251
  45      0.11431480941922
  46    -0.010154354280633
  47      0.37764564673536
  48      -0.0139002692706
  49    -0.0051730653845465
  50      0.15534199641888
  51    -0.0072649071789591
  52    -0.013198529683457
  53    -0.00020384914582556
  54    0.0010386481037502
  55    -0.021143750618338
  56    0.0004276475168161
  57    -0.0039165085665764
  58    -0.023135768648596
  59    -0.020070827381003
  60     0.031345968070945
  61    -0.0064236639405146
  62    -0.004334165729023
  63     0.019565134321763
  64    0.0057834439761865
  65    -0.010778161945284
  66    -0.0068015958722411
  67    0.0022493391355388
  68    0.0039380882362852
  69    -0.0078908800600446
  70    -0.013682157639746
  71    -3.8574239406686e-05
  72    -0.00082522613692998
  73    -0.0025650842905013
  74    0.0032698156400211
  75    -0.0015039329829409
  76    0.0022409614753529
  77    0.0020575092468166
  78    -0.0041165307194893
  79    0.0066323731654668
  80    0.00021478908181059
  81    -0.00032671218631498
  82    0.00053681970788476
  83    -0.00082084530378276
  84    -0.00032636690721205
  85    -0.00070254127685166
  86    -0.00090395235881984
  87    0.0039695629434026
  88    0.00073615245726219
  89    0.0025851062113254
  90    -0.00064362083247227
  91    -0.00035127867329241
  92    0.0057422393859134
  93    -0.0025364232229048
  94    0.00019776012710247
  95    -2.7968206540628e-05
  96    1.3404329576856e-05
  97    3.3445890028453e-05
  98    0.00021375184233179
  99    0.00051552969233174
 100    -0.0020784432075017
 101    -0.017302871256441
 102    -0.0088594023505627
 103    0.0015250342316206
 104    0.0019429527521863
 105    -0.0092672600440989
 106    -0.00036974074802519
 107    0.0046188260083415
 108    -0.00036675975252826
 109    0.00027159360936172
 110    -0.00073667089079666
 111    -0.00048704684846579
 112    -0.00022514012705515
 113    -0.002463946818074
 114    -0.012912175560387
 115    -0.0092929518967448
 116    -0.0092779688539027
 117    -0.016526468272456
 118    -0.015202495575296
 119    -0.0098637701804483
 120    -0.037368071750558
 121    -0.0056241745304287
 122    -0.0017445260903946
 123    0.00036239048354704
 124    0.0048682763519065
 125    -0.0030152129699375
 126    0.0047951461109202
 127    0.00091111219219065
 128    -0.0074802040601107
 129     -0.03539138342251
 130    0.0083183712353951
 131    -0.0055285093953867
 132    -0.010630705622446
 133     0.010297082264281
 134    -0.0044614135445424
 135    -0.010782217830142
 136    4.1372438236703e-05
 137    0.0011985898894885
 138    -0.0012874016902496
 139    -0.0016468750633199
 140    -0.00090609313126596
 141    6.8281643290165e-05
 142    0.00035917335897404
 143    0.0011111299218397
 144    0.0010858224930392
 145    0.0022878658276301
 146     0.001944765490523
 147     0.001294345220337
 148    0.0029095441345397
 149    0.0033022969293927
 150    -0.00011099004937096
 151    0.00015622711451324
 152    -4.5355492373177e-06
 153    2.3968103782267e-05
 154    -5.1271125772699e-05
 155     0.001135417410277
 156    0.0024518952463703
 157    -0.00010077918672888
 158    -1.1780026324221e-05
 159    0.00015330354117147
 160    0.0025201958743385
 161    -0.0022469216302525
 162    2.2478703964998e-05
 163    -0.00012694600678392
 164    -0.00058284342702906
 165    0.00047654693160442
 166    0.0023309164965855
 167    -1.8683150753709e-05
 168    -0.00048158242023357
 169    -0.00043580260933038
 170    -0.011774514489212
 171    -0.0024147347230275
 172    -0.0011027587725066
 173    -0.0013430621763892
 174    -0.00047147713792235
 175    -0.00035834348529767
 176    -0.00067498465390093
 177    0.0039095867374424
 178    0.00076507794955778
 179    -0.00037333950780609
 180    0.00045537394329797
 181    -0.0009471216488365
 182    -7.9100673502413e-05
 183    -0.00099039295173152
 184    -9.7039070662545e-06
 185    0.00018569819178961
 186    5.9806916010393e-05
 187    0.00011360423621308
 188    9.6320270828056e-05
 189    -0.00074831196603095
 190    0.00034053296679269
 191    -4.0245739358397e-05
 192    0.00015928403877575
 193    -0.00024603992734783
 194    -0.00073647358950766
 195    -0.0038228112231104
 196    -0.00011496262841468
 197    -0.00033416704450347
 198    -0.00013614583646522
 199    -0.0063710105309204
 200    0.0073741916017427
 201    -0.00025346385496055
 202    0.00084735456944218
 203    0.00016930956626471
 204     0.020878682543773
 205     0.047810538973397
 206    0.00025248944846567
 207    -0.0010465124064562
 208    -0.00015844916205759
 209      0.43791677297141
 210      0.14393513698756
 211    0.0003380296244808
 212    -0.034040741541326
 213    0.00082059247834537
 214     0.021021516461445
 215     0.048306619561342
 216    -0.00038409355064908
 217    -0.0010353139020248
 218    0.00049146576093433
 219    -0.003326102275969
 220    0.0060051647444563
 221    -0.00079992706996749
 222    0.00094188480425953
 223    0.00021184200640588
 224    0.0047084275210907
 225    -0.0015086155889954
 226    -0.00050727815088604
 227    0.00011466283549664
 228    -0.00044865897194034
