[Molden Format]
made by pyscf v[2.1.0]
[Atoms] (AU)
C   1   6     2.32946917320360    -0.63344186613258     2.37168943427863
C   2   6    -0.29669267073509     0.30039086476086     3.22269546913239
C   3   6    -2.28836574026819    -0.45088865332122     1.27613394164491
C   4   6    -1.50258360260379     0.48150977544368    -1.34195877174189
C   5   6     1.17077037184366    -0.47613539434541    -1.98531603085006
O   6   8     2.90615122545875     0.36947547242271    -0.06380660259594
O   7   8    -1.02480036707776    -0.78170410868758     5.58840958940515
O   8   8    -4.71990091118567     0.61286652808832     1.81907682367207
O   9   8    -3.21856263809797    -0.39246777018029    -3.24986406162526
C   10   6     2.14873576665020     0.54311106765225    -4.52137384344336
O   11   8     0.97527064535291    -0.64120108160005    -6.63217335814292
H   12   1     0.34900595904142    -0.48214283369541     6.76077111064570
H   13   1    -5.19719092819319     0.02690592056156     3.48444332437202
H   14   1    -0.83535721281623    -0.49952075513691    -6.37469817367093
H   15   1    -4.90002393620084     0.08874342853570    -2.71063260170675
O   16   8     4.22615893853768     0.10859122202201     4.07505454789134
H   17   1     4.38166639105427     1.93178575891951     3.94362220620171
H   18   1     2.36505838530753    -2.71537014510103     2.34202262384909
H   19   1    -0.22188597236806     2.38358526023277     3.34538215831753
H   20   1    -2.40897751016855    -2.53158672058258     1.22868291865708
H   21   1    -1.45404220764209     2.56502731408288    -1.31752650267738
H   22   1     1.14953551938192    -2.55944317338479    -2.06041941621865
H   23   1     1.89192576577406     2.61534694132780    -4.54974430175146
H   24   1     4.17463555575142     0.13656105839169    -4.65046670419078
[GTO]
1 0
 s    8 1.00
                  6665  0.00069158396281299
                  1000  0.0053257961529341
                   228   0.027060721042034
                 64.71    0.10165684614077
                 21.06     0.2745748236174
                 7.495    0.44829431892377
                 2.797    0.28490261071525
                0.5215   0.015194859206082
 s    8 1.00
                  6665  -0.00029326965268655
                  1000  -0.0023180354739745
                   228  -0.011499786038565
                 64.71  -0.046826727009787
                 21.06   -0.12846616875047
                 7.495   -0.30126627246289
                 2.797   -0.25563070233011
                0.5215      1.093793361012
 s    1 1.00
                0.1596                   1
 p    3 1.00
                 9.439   0.056979251590039
                 2.002    0.31320721150073
                0.5456    0.76037674173753
 p    1 1.00
                0.1517                   1
 d    1 1.00
                  0.55                   1

2 0
 s    8 1.00
                  6665  0.00069158396281299
                  1000  0.0053257961529341
                   228   0.027060721042034
                 64.71    0.10165684614077
                 21.06     0.2745748236174
                 7.495    0.44829431892377
                 2.797    0.28490261071525
                0.5215   0.015194859206082
 s    8 1.00
                  6665  -0.00029326965268655
                  1000  -0.0023180354739745
                   228  -0.011499786038565
                 64.71  -0.046826727009787
                 21.06   -0.12846616875047
                 7.495   -0.30126627246289
                 2.797   -0.25563070233011
                0.5215      1.093793361012
 s    1 1.00
                0.1596                   1
 p    3 1.00
                 9.439   0.056979251590039
                 2.002    0.31320721150073
                0.5456    0.76037674173753
 p    1 1.00
                0.1517                   1
 d    1 1.00
                  0.55                   1

3 0
 s    8 1.00
                  6665  0.00069158396281299
                  1000  0.0053257961529341
                   228   0.027060721042034
                 64.71    0.10165684614077
                 21.06     0.2745748236174
                 7.495    0.44829431892377
                 2.797    0.28490261071525
                0.5215   0.015194859206082
 s    8 1.00
                  6665  -0.00029326965268655
                  1000  -0.0023180354739745
                   228  -0.011499786038565
                 64.71  -0.046826727009787
                 21.06   -0.12846616875047
                 7.495   -0.30126627246289
                 2.797   -0.25563070233011
                0.5215      1.093793361012
 s    1 1.00
                0.1596                   1
 p    3 1.00
                 9.439   0.056979251590039
                 2.002    0.31320721150073
                0.5456    0.76037674173753
 p    1 1.00
                0.1517                   1
 d    1 1.00
                  0.55                   1

4 0
 s    8 1.00
                  6665  0.00069158396281299
                  1000  0.0053257961529341
                   228   0.027060721042034
                 64.71    0.10165684614077
                 21.06     0.2745748236174
                 7.495    0.44829431892377
                 2.797    0.28490261071525
                0.5215   0.015194859206082
 s    8 1.00
                  6665  -0.00029326965268655
                  1000  -0.0023180354739745
                   228  -0.011499786038565
                 64.71  -0.046826727009787
                 21.06   -0.12846616875047
                 7.495   -0.30126627246289
                 2.797   -0.25563070233011
                0.5215      1.093793361012
 s    1 1.00
                0.1596                   1
 p    3 1.00
                 9.439   0.056979251590039
                 2.002    0.31320721150073
                0.5456    0.76037674173753
 p    1 1.00
                0.1517                   1
 d    1 1.00
                  0.55                   1

5 0
 s    8 1.00
                  6665  0.00069158396281299
                  1000  0.0053257961529341
                   228   0.027060721042034
                 64.71    0.10165684614077
                 21.06     0.2745748236174
                 7.495    0.44829431892377
                 2.797    0.28490261071525
                0.5215   0.015194859206082
 s    8 1.00
                  6665  -0.00029326965268655
                  1000  -0.0023180354739745
                   228  -0.011499786038565
                 64.71  -0.046826727009787
                 21.06   -0.12846616875047
                 7.495   -0.30126627246289
                 2.797   -0.25563070233011
                0.5215      1.093793361012
 s    1 1.00
                0.1596                   1
 p    3 1.00
                 9.439   0.056979251590039
                 2.002    0.31320721150073
                0.5456    0.76037674173753
 p    1 1.00
                0.1517                   1
 d    1 1.00
                  0.55                   1

6 0
 s    8 1.00
                 11720  0.00070964594651845
                  1759  0.0054672722921914
                 400.8   0.027823118610189
                 113.7    0.10474773971146
                 37.03    0.28292084635691
                 13.27    0.44849523869833
                 5.025    0.27081688521277
                 1.013    0.01545029160744
 s    8 1.00
                 11720  -0.00031444341168873
                  1759  -0.0024821376810179
                 400.8  -0.012316355381583
                 113.7  -0.050538917343672
                 37.03   -0.13938490331632
                 13.27   -0.32507749481778
                 5.025   -0.22984830758785
                 1.013     1.0953793467883
 s    1 1.00
                0.3023                   1
 p    3 1.00
                  17.7   0.062679166281506
                 3.854    0.33353656587936
                 1.046    0.74123964163973
 p    1 1.00
                0.2753                   1
 d    1 1.00
                 1.185                   1

7 0
 s    8 1.00
                 11720  0.00070964594651845
                  1759  0.0054672722921914
                 400.8   0.027823118610189
                 113.7    0.10474773971146
                 37.03    0.28292084635691
                 13.27    0.44849523869833
                 5.025    0.27081688521277
                 1.013    0.01545029160744
 s    8 1.00
                 11720  -0.00031444341168873
                  1759  -0.0024821376810179
                 400.8  -0.012316355381583
                 113.7  -0.050538917343672
                 37.03   -0.13938490331632
                 13.27   -0.32507749481778
                 5.025   -0.22984830758785
                 1.013     1.0953793467883
 s    1 1.00
                0.3023                   1
 p    3 1.00
                  17.7   0.062679166281506
                 3.854    0.33353656587936
                 1.046    0.74123964163973
 p    1 1.00
                0.2753                   1
 d    1 1.00
                 1.185                   1

8 0
 s    8 1.00
                 11720  0.00070964594651845
                  1759  0.0054672722921914
                 400.8   0.027823118610189
                 113.7    0.10474773971146
                 37.03    0.28292084635691
                 13.27    0.44849523869833
                 5.025    0.27081688521277
                 1.013    0.01545029160744
 s    8 1.00
                 11720  -0.00031444341168873
                  1759  -0.0024821376810179
                 400.8  -0.012316355381583
                 113.7  -0.050538917343672
                 37.03   -0.13938490331632
                 13.27   -0.32507749481778
                 5.025   -0.22984830758785
                 1.013     1.0953793467883
 s    1 1.00
                0.3023                   1
 p    3 1.00
                  17.7   0.062679166281506
                 3.854    0.33353656587936
                 1.046    0.74123964163973
 p    1 1.00
                0.2753                   1
 d    1 1.00
                 1.185                   1

9 0
 s    8 1.00
                 11720  0.00070964594651845
                  1759  0.0054672722921914
                 400.8   0.027823118610189
                 113.7    0.10474773971146
                 37.03    0.28292084635691
                 13.27    0.44849523869833
                 5.025    0.27081688521277
                 1.013    0.01545029160744
 s    8 1.00
                 11720  -0.00031444341168873
                  1759  -0.0024821376810179
                 400.8  -0.012316355381583
                 113.7  -0.050538917343672
                 37.03   -0.13938490331632
                 13.27   -0.32507749481778
                 5.025   -0.22984830758785
                 1.013     1.0953793467883
 s    1 1.00
                0.3023                   1
 p    3 1.00
                  17.7   0.062679166281506
                 3.854    0.33353656587936
                 1.046    0.74123964163973
 p    1 1.00
                0.2753                   1
 d    1 1.00
                 1.185                   1

10 0
 s    8 1.00
                  6665  0.00069158396281299
                  1000  0.0053257961529341
                   228   0.027060721042034
                 64.71    0.10165684614077
                 21.06     0.2745748236174
                 7.495    0.44829431892377
                 2.797    0.28490261071525
                0.5215   0.015194859206082
 s    8 1.00
                  6665  -0.00029326965268655
                  1000  -0.0023180354739745
                   228  -0.011499786038565
                 64.71  -0.046826727009787
                 21.06   -0.12846616875047
                 7.495   -0.30126627246289
                 2.797   -0.25563070233011
                0.5215      1.093793361012
 s    1 1.00
                0.1596                   1
 p    3 1.00
                 9.439   0.056979251590039
                 2.002    0.31320721150073
                0.5456    0.76037674173753
 p    1 1.00
                0.1517                   1
 d    1 1.00
                  0.55                   1

11 0
 s    8 1.00
                 11720  0.00070964594651845
                  1759  0.0054672722921914
                 400.8   0.027823118610189
                 113.7    0.10474773971146
                 37.03    0.28292084635691
                 13.27    0.44849523869833
                 5.025    0.27081688521277
                 1.013    0.01545029160744
 s    8 1.00
                 11720  -0.00031444341168873
                  1759  -0.0024821376810179
                 400.8  -0.012316355381583
                 113.7  -0.050538917343672
                 37.03   -0.13938490331632
                 13.27   -0.32507749481778
                 5.025   -0.22984830758785
                 1.013     1.0953793467883
 s    1 1.00
                0.3023                   1
 p    3 1.00
                  17.7   0.062679166281506
                 3.854    0.33353656587936
                 1.046    0.74123964163973
 p    1 1.00
                0.2753                   1
 d    1 1.00
                 1.185                   1

12 0
 s    3 1.00
                 13.01   0.033498726389998
                 1.962    0.23480080117413
                0.4446     0.8136829578829
 s    1 1.00
                 0.122                   1
 p    1 1.00
                 0.727                   1

13 0
 s    3 1.00
                 13.01   0.033498726389998
                 1.962    0.23480080117413
                0.4446     0.8136829578829
 s    1 1.00
                 0.122                   1
 p    1 1.00
                 0.727                   1

14 0
 s    3 1.00
                 13.01   0.033498726389998
                 1.962    0.23480080117413
                0.4446     0.8136829578829
 s    1 1.00
                 0.122                   1
 p    1 1.00
                 0.727                   1

15 0
 s    3 1.00
                 13.01   0.033498726389998
                 1.962    0.23480080117413
                0.4446     0.8136829578829
 s    1 1.00
                 0.122                   1
 p    1 1.00
                 0.727                   1

16 0
 s    8 1.00
                 11720  0.00070964594651845
                  1759  0.0054672722921914
                 400.8   0.027823118610189
                 113.7    0.10474773971146
                 37.03    0.28292084635691
                 13.27    0.44849523869833
                 5.025    0.27081688521277
                 1.013    0.01545029160744
 s    8 1.00
                 11720  -0.00031444341168873
                  1759  -0.0024821376810179
                 400.8  -0.012316355381583
                 113.7  -0.050538917343672
                 37.03   -0.13938490331632
                 13.27   -0.32507749481778
                 5.025   -0.22984830758785
                 1.013     1.0953793467883
 s    1 1.00
                0.3023                   1
 p    3 1.00
                  17.7   0.062679166281506
                 3.854    0.33353656587936
                 1.046    0.74123964163973
 p    1 1.00
                0.2753                   1
 d    1 1.00
                 1.185                   1

17 0
 s    3 1.00
                 13.01   0.033498726389998
                 1.962    0.23480080117413
                0.4446     0.8136829578829
 s    1 1.00
                 0.122                   1
 p    1 1.00
                 0.727                   1

18 0
 s    3 1.00
                 13.01   0.033498726389998
                 1.962    0.23480080117413
                0.4446     0.8136829578829
 s    1 1.00
                 0.122                   1
 p    1 1.00
                 0.727                   1

19 0
 s    3 1.00
                 13.01   0.033498726389998
                 1.962    0.23480080117413
                0.4446     0.8136829578829
 s    1 1.00
                 0.122                   1
 p    1 1.00
                 0.727                   1

20 0
 s    3 1.00
                 13.01   0.033498726389998
                 1.962    0.23480080117413
                0.4446     0.8136829578829
 s    1 1.00
                 0.122                   1
 p    1 1.00
                 0.727                   1

21 0
 s    3 1.00
                 13.01   0.033498726389998
                 1.962    0.23480080117413
                0.4446     0.8136829578829
 s    1 1.00
                 0.122                   1
 p    1 1.00
                 0.727                   1

22 0
 s    3 1.00
                 13.01   0.033498726389998
                 1.962    0.23480080117413
                0.4446     0.8136829578829
 s    1 1.00
                 0.122                   1
 p    1 1.00
                 0.727                   1

23 0
 s    3 1.00
                 13.01   0.033498726389998
                 1.962    0.23480080117413
                0.4446     0.8136829578829
 s    1 1.00
                 0.122                   1
 p    1 1.00
                 0.727                   1

24 0
 s    3 1.00
                 13.01   0.033498726389998
                 1.962    0.23480080117413
                0.4446     0.8136829578829
 s    1 1.00
                 0.122                   1
 p    1 1.00
                 0.727                   1

[5d]
[7f]
[9g]

[MO]
 Sym= A
 Ene=     -20.5892274
 Spin= Alpha
 Occup=    2.00000
   1    -0.00052696132611456
   2    -0.0026996182462701
   3    -0.0045679984565538
   4    -0.00086409666551998
   5    0.00095059702264407
   6    0.0013479327111437
   7    -0.0023330443724921
   8    -0.0010300657856252
   9    0.0002131961258673
  10    0.00047225184670922
  11    0.00045879206341586
  12    0.00072159350999754
  13    9.6429613200902e-05
  14    0.00014034596832402
  15    0.00046383989679704
  16    0.0012656305623272
  17    -0.0056543156841219
  18    0.00037653864076933
  19    9.3052931737426e-05
  20    -0.00029606861142678
  21    0.0028862597781243
  22    0.00057862156760947
  23    0.0059687001298344
  24    0.00010853529577544
  25    -3.8994292784306e-05
  26    -0.0002011831189841
  27    8.7975239211961e-06
  28    -0.00021175760574728
  29    -0.0013105093897238
  30    -0.00021950645994248
  31      0.02635160520125
  32    0.0015573262407985
  33    0.0035348736350486
  34    -0.0050362280875075
  35    0.0068911744701279
  36    0.0081887068802006
  37    -0.0090951131488214
  38    0.00085815711331006
  39    -1.3087540723553e-05
  40    -0.00046151053398365
  41    8.2009618823679e-05
  42    -0.00024374415254903
  43    0.00080267347262582
  44    -0.0092875171971979
  45    -0.048900998490805
  46    -0.015116842950096
  47    -0.0061727272627339
  48    0.0074417872548014
  49    -0.015000644945776
  50    -0.0016339004751619
  51    -0.011659386570207
  52    -0.00066229790447487
  53    0.0017230953769405
  54    -0.00085566288830185
  55    -0.0012963653332443
  56    -0.00078840698461745
  57    -0.0039245033432492
  58    -0.025063313233117
  59    -0.031140810732127
  60    -0.010322815561597
  61     -0.01000246172444
  62     0.032717249226708
  63    -0.016827055636849
  64     0.005394474612431
  65     0.029137533744837
  66    -0.0021094923024544
  67    0.0028423706724437
  68    -0.013175769907631
  69    -0.010323264739448
  70    0.0044219899280569
  71    0.00033013919370126
  72      0.00136552349222
  73    -0.0015244434372982
  74    0.0024242823693339
  75    -0.0015249520033091
  76    0.00026877438277531
  77    0.0041470224792524
  78    -0.0043716093530105
  79    0.0022304360778476
  80    -0.00093390795957719
  81    4.3322272881229e-05
  82    -0.00018736469907875
  83    -0.00040348589242263
  84    0.00063782700651403
  85    2.085139156167e-05
  86    0.00016082203542105
  87    -0.00024855432644405
  88    -1.6914811469405e-06
  89    -0.000176335508136
  90    -0.00012695337857754
  91    -0.0010980941334422
  92    -0.00083217800419313
  93    -0.00064923883049879
  94    1.7472843778743e-05
  95    -3.5958717100568e-05
  96    -1.1787941316398e-05
  97    -1.3097316618205e-05
  98    -2.6198957996479e-05
  99    0.0002050865412493
 100    0.00038780060589618
 101    -0.0026148799545196
 102    0.00024660645534547
 103    -0.0005371044053248
 104    0.00018406223918626
 105    -0.001156828704985
 106    -0.001231650875326
 107    0.00097285242901053
 108    4.8037067051802e-05
 109    -7.6514977426217e-05
 110    3.9556403504489e-06
 111    3.286737448211e-05
 112    3.1718931763125e-05
 113    0.00065911001402883
 114    0.0018886786668475
 115    -0.0014976151361221
 116    0.0015635544408035
 117     0.001306932297991
 118    0.00039110534072226
 119    -0.0038702740353338
 120    -0.00056032758166511
 121    0.0017913773607254
 122    0.00026333665196309
 123    -0.00019463908365814
 124    -0.00014349302661557
 125    -0.000264839368689
 126    -0.00018976114815022
 127    -0.0094191412149636
 128      0.19950543878981
 129      0.12151770689759
 130    -0.066659891224533
 131      0.36750695665096
 132    -0.025000608921257
 133    -0.029037506554176
 134      0.14450940864271
 135    -0.0068765172313293
 136     -0.01322461308116
 137    -0.00025290583759921
 138    -6.6725842149052e-06
 139    -0.019814920042306
 140    -0.0072500201989324
 141    -0.0024116500653131
 142    -0.012764900282817
 143    -0.0071169977353548
 144    -0.0036384851936405
 145    -0.018232879967043
 146    -0.015811680652659
 147    0.00093300606256564
 148    -0.039381661138901
 149    -0.0047611783841997
 150    -0.0020321749291906
 151    -0.00073084515548987
 152    0.0051214699684337
 153    -0.0043557086657308
 154    0.0026654775169943
 155    0.00011438839984496
 156    -0.00074668841194932
 157    -0.00014422539844277
 158    -8.1021451103302e-05
 159    1.8788122753194e-05
 160    0.00076684255585041
 161    0.0011077956287348
 162    0.00020466216646058
 163    -5.3936301605602e-05
 164    -2.4580018942838e-05
 165     -0.01094310923476
 166    -0.00066061867102337
 167    -0.00059861701837749
 168    -0.0018364590590783
 169    -0.00066403637030204
 170    -0.0024547516887176
 171    -0.005090336582714
 172    -0.00021041997168726
 173    0.00062175295816452
 174    0.00018585495662986
 175    -3.2372151346647e-05
 176    0.00051180131598159
 177    0.0021845528412859
 178    -0.0009272951676214
 179    -0.00047198421293797
 180    -0.00090875893860749
 181    -0.00074196539679506
 182    -0.00092034206680052
 183    -0.0013783875106282
 184    1.9976386772289e-05
 185    -4.2287631898433e-05
 186    -2.6118899183552e-05
 187    5.8238230187645e-05
 188    -4.2474221100272e-05
 189    -0.0003469525360248
 190    0.00044244697577008
 191    -0.0001190034809551
 192    -9.0882220181452e-05
 193    -0.00010671406412872
 194    -0.0024259462565614
 195    -0.0030965950802154
 196    -1.4179248625367e-05
 197    -0.00027833329716456
 198    -1.0288816383439e-05
 199    0.00045796342530901
 200    -0.0012818006375157
 201    4.1723982016393e-05
 202    -2.7257073470646e-05
 203    -0.00016459769449156
 204    -0.0028642970551741
 205    -0.0027407265934092
 206    6.381559696858e-07
 207    -0.00026053954712146
 208    -0.00012630196613954
 209    -0.0053682554264393
 210    0.0066870060640794
 211    0.00014936257029873
 212    0.0012134924368306
 213    -1.154563168557e-05
 214     0.022244206252703
 215     0.053679947702852
 216    0.00019406759892166
 217    -0.00060710866996768
 218    -8.5518700904069e-05
 219      0.43756382689038
 220      0.15800910627335
 221    0.0030854774678747
 222    -0.033253441872753
 223    0.0024659839573973
 224    -0.027153258933608
 225    -0.036423640627146
 226    -0.0037921036210884
 227     0.011254553685897
 228    -0.002037891492675
