[Molden Format]
made by pyscf v[2.1.0]
[Atoms] (AU)
C   1   6     2.32946917320360    -0.63344186613258     2.37168943427863
C   2   6    -0.29669267073509     0.30039086476086     3.22269546913239
C   3   6    -2.28836574026819    -0.45088865332122     1.27613394164491
C   4   6    -1.50258360260379     0.48150977544368    -1.34195877174189
C   5   6     1.17077037184366    -0.47613539434541    -1.98531603085006
O   6   8     2.90615122545875     0.36947547242271    -0.06380660259594
O   7   8    -1.02480036707776    -0.78170410868758     5.58840958940515
O   8   8    -4.71990091118567     0.61286652808832     1.81907682367207
O   9   8    -3.21856263809797    -0.39246777018029    -3.24986406162526
C   10   6     2.14873576665020     0.54311106765225    -4.52137384344336
O   11   8     0.97527064535291    -0.64120108160005    -6.63217335814292
H   12   1     0.34900595904142    -0.48214283369541     6.76077111064570
H   13   1    -5.19719092819319     0.02690592056156     3.48444332437202
H   14   1    -0.83535721281623    -0.49952075513691    -6.37469817367093
H   15   1    -4.90002393620084     0.08874342853570    -2.71063260170675
O   16   8     4.22615893853768     0.10859122202201     4.07505454789134
H   17   1     4.38166639105427     1.93178575891951     3.94362220620171
H   18   1     2.36505838530753    -2.71537014510103     2.34202262384909
H   19   1    -0.22188597236806     2.38358526023277     3.34538215831753
H   20   1    -2.40897751016855    -2.53158672058258     1.22868291865708
H   21   1    -1.45404220764209     2.56502731408288    -1.31752650267738
H   22   1     1.14953551938192    -2.55944317338479    -2.06041941621865
H   23   1     1.89192576577406     2.61534694132780    -4.54974430175146
H   24   1     4.17463555575142     0.13656105839169    -4.65046670419078
[GTO]
1 0
 s    8 1.00
                  6665  0.00069158396281299
                  1000  0.0053257961529341
                   228   0.027060721042034
                 64.71    0.10165684614077
                 21.06     0.2745748236174
                 7.495    0.44829431892377
                 2.797    0.28490261071525
                0.5215   0.015194859206082
 s    8 1.00
                  6665  -0.00029326965268655
                  1000  -0.0023180354739745
                   228  -0.011499786038565
                 64.71  -0.046826727009787
                 21.06   -0.12846616875047
                 7.495   -0.30126627246289
                 2.797   -0.25563070233011
                0.5215      1.093793361012
 s    1 1.00
                0.1596                   1
 p    3 1.00
                 9.439   0.056979251590039
                 2.002    0.31320721150073
                0.5456    0.76037674173753
 p    1 1.00
                0.1517                   1
 d    1 1.00
                  0.55                   1

2 0
 s    8 1.00
                  6665  0.00069158396281299
                  1000  0.0053257961529341
                   228   0.027060721042034
                 64.71    0.10165684614077
                 21.06     0.2745748236174
                 7.495    0.44829431892377
                 2.797    0.28490261071525
                0.5215   0.015194859206082
 s    8 1.00
                  6665  -0.00029326965268655
                  1000  -0.0023180354739745
                   228  -0.011499786038565
                 64.71  -0.046826727009787
                 21.06   -0.12846616875047
                 7.495   -0.30126627246289
                 2.797   -0.25563070233011
                0.5215      1.093793361012
 s    1 1.00
                0.1596                   1
 p    3 1.00
                 9.439   0.056979251590039
                 2.002    0.31320721150073
                0.5456    0.76037674173753
 p    1 1.00
                0.1517                   1
 d    1 1.00
                  0.55                   1

3 0
 s    8 1.00
                  6665  0.00069158396281299
                  1000  0.0053257961529341
                   228   0.027060721042034
                 64.71    0.10165684614077
                 21.06     0.2745748236174
                 7.495    0.44829431892377
                 2.797    0.28490261071525
                0.5215   0.015194859206082
 s    8 1.00
                  6665  -0.00029326965268655
                  1000  -0.0023180354739745
                   228  -0.011499786038565
                 64.71  -0.046826727009787
                 21.06   -0.12846616875047
                 7.495   -0.30126627246289
                 2.797   -0.25563070233011
                0.5215      1.093793361012
 s    1 1.00
                0.1596                   1
 p    3 1.00
                 9.439   0.056979251590039
                 2.002    0.31320721150073
                0.5456    0.76037674173753
 p    1 1.00
                0.1517                   1
 d    1 1.00
                  0.55                   1

4 0
 s    8 1.00
                  6665  0.00069158396281299
                  1000  0.0053257961529341
                   228   0.027060721042034
                 64.71    0.10165684614077
                 21.06     0.2745748236174
                 7.495    0.44829431892377
                 2.797    0.28490261071525
                0.5215   0.015194859206082
 s    8 1.00
                  6665  -0.00029326965268655
                  1000  -0.0023180354739745
                   228  -0.011499786038565
                 64.71  -0.046826727009787
                 21.06   -0.12846616875047
                 7.495   -0.30126627246289
                 2.797   -0.25563070233011
                0.5215      1.093793361012
 s    1 1.00
                0.1596                   1
 p    3 1.00
                 9.439   0.056979251590039
                 2.002    0.31320721150073
                0.5456    0.76037674173753
 p    1 1.00
                0.1517                   1
 d    1 1.00
                  0.55                   1

5 0
 s    8 1.00
                  6665  0.00069158396281299
                  1000  0.0053257961529341
                   228   0.027060721042034
                 64.71    0.10165684614077
                 21.06     0.2745748236174
                 7.495    0.44829431892377
                 2.797    0.28490261071525
                0.5215   0.015194859206082
 s    8 1.00
                  6665  -0.00029326965268655
                  1000  -0.0023180354739745
                   228  -0.011499786038565
                 64.71  -0.046826727009787
                 21.06   -0.12846616875047
                 7.495   -0.30126627246289
                 2.797   -0.25563070233011
                0.5215      1.093793361012
 s    1 1.00
                0.1596                   1
 p    3 1.00
                 9.439   0.056979251590039
                 2.002    0.31320721150073
                0.5456    0.76037674173753
 p    1 1.00
                0.1517                   1
 d    1 1.00
                  0.55                   1

6 0
 s    8 1.00
                 11720  0.00070964594651845
                  1759  0.0054672722921914
                 400.8   0.027823118610189
                 113.7    0.10474773971146
                 37.03    0.28292084635691
                 13.27    0.44849523869833
                 5.025    0.27081688521277
                 1.013    0.01545029160744
 s    8 1.00
                 11720  -0.00031444341168873
                  1759  -0.0024821376810179
                 400.8  -0.012316355381583
                 113.7  -0.050538917343672
                 37.03   -0.13938490331632
                 13.27   -0.32507749481778
                 5.025   -0.22984830758785
                 1.013     1.0953793467883
 s    1 1.00
                0.3023                   1
 p    3 1.00
                  17.7   0.062679166281506
                 3.854    0.33353656587936
                 1.046    0.74123964163973
 p    1 1.00
                0.2753                   1
 d    1 1.00
                 1.185                   1

7 0
 s    8 1.00
                 11720  0.00070964594651845
                  1759  0.0054672722921914
                 400.8   0.027823118610189
                 113.7    0.10474773971146
                 37.03    0.28292084635691
                 13.27    0.44849523869833
                 5.025    0.27081688521277
                 1.013    0.01545029160744
 s    8 1.00
                 11720  -0.00031444341168873
                  1759  -0.0024821376810179
                 400.8  -0.012316355381583
                 113.7  -0.050538917343672
                 37.03   -0.13938490331632
                 13.27   -0.32507749481778
                 5.025   -0.22984830758785
                 1.013     1.0953793467883
 s    1 1.00
                0.3023                   1
 p    3 1.00
                  17.7   0.062679166281506
                 3.854    0.33353656587936
                 1.046    0.74123964163973
 p    1 1.00
                0.2753                   1
 d    1 1.00
                 1.185                   1

8 0
 s    8 1.00
                 11720  0.00070964594651845
                  1759  0.0054672722921914
                 400.8   0.027823118610189
                 113.7    0.10474773971146
                 37.03    0.28292084635691
                 13.27    0.44849523869833
                 5.025    0.27081688521277
                 1.013    0.01545029160744
 s    8 1.00
                 11720  -0.00031444341168873
                  1759  -0.0024821376810179
                 400.8  -0.012316355381583
                 113.7  -0.050538917343672
                 37.03   -0.13938490331632
                 13.27   -0.32507749481778
                 5.025   -0.22984830758785
                 1.013     1.0953793467883
 s    1 1.00
                0.3023                   1
 p    3 1.00
                  17.7   0.062679166281506
                 3.854    0.33353656587936
                 1.046    0.74123964163973
 p    1 1.00
                0.2753                   1
 d    1 1.00
                 1.185                   1

9 0
 s    8 1.00
                 11720  0.00070964594651845
                  1759  0.0054672722921914
                 400.8   0.027823118610189
                 113.7    0.10474773971146
                 37.03    0.28292084635691
                 13.27    0.44849523869833
                 5.025    0.27081688521277
                 1.013    0.01545029160744
 s    8 1.00
                 11720  -0.00031444341168873
                  1759  -0.0024821376810179
                 400.8  -0.012316355381583
                 113.7  -0.050538917343672
                 37.03   -0.13938490331632
                 13.27   -0.32507749481778
                 5.025   -0.22984830758785
                 1.013     1.0953793467883
 s    1 1.00
                0.3023                   1
 p    3 1.00
                  17.7   0.062679166281506
                 3.854    0.33353656587936
                 1.046    0.74123964163973
 p    1 1.00
                0.2753                   1
 d    1 1.00
                 1.185                   1

10 0
 s    8 1.00
                  6665  0.00069158396281299
                  1000  0.0053257961529341
                   228   0.027060721042034
                 64.71    0.10165684614077
                 21.06     0.2745748236174
                 7.495    0.44829431892377
                 2.797    0.28490261071525
                0.5215   0.015194859206082
 s    8 1.00
                  6665  -0.00029326965268655
                  1000  -0.0023180354739745
                   228  -0.011499786038565
                 64.71  -0.046826727009787
                 21.06   -0.12846616875047
                 7.495   -0.30126627246289
                 2.797   -0.25563070233011
                0.5215      1.093793361012
 s    1 1.00
                0.1596                   1
 p    3 1.00
                 9.439   0.056979251590039
                 2.002    0.31320721150073
                0.5456    0.76037674173753
 p    1 1.00
                0.1517                   1
 d    1 1.00
                  0.55                   1

11 0
 s    8 1.00
                 11720  0.00070964594651845
                  1759  0.0054672722921914
                 400.8   0.027823118610189
                 113.7    0.10474773971146
                 37.03    0.28292084635691
                 13.27    0.44849523869833
                 5.025    0.27081688521277
                 1.013    0.01545029160744
 s    8 1.00
                 11720  -0.00031444341168873
                  1759  -0.0024821376810179
                 400.8  -0.012316355381583
                 113.7  -0.050538917343672
                 37.03   -0.13938490331632
                 13.27   -0.32507749481778
                 5.025   -0.22984830758785
                 1.013     1.0953793467883
 s    1 1.00
                0.3023                   1
 p    3 1.00
                  17.7   0.062679166281506
                 3.854    0.33353656587936
                 1.046    0.74123964163973
 p    1 1.00
                0.2753                   1
 d    1 1.00
                 1.185                   1

12 0
 s    3 1.00
                 13.01   0.033498726389998
                 1.962    0.23480080117413
                0.4446     0.8136829578829
 s    1 1.00
                 0.122                   1
 p    1 1.00
                 0.727                   1

13 0
 s    3 1.00
                 13.01   0.033498726389998
                 1.962    0.23480080117413
                0.4446     0.8136829578829
 s    1 1.00
                 0.122                   1
 p    1 1.00
                 0.727                   1

14 0
 s    3 1.00
                 13.01   0.033498726389998
                 1.962    0.23480080117413
                0.4446     0.8136829578829
 s    1 1.00
                 0.122                   1
 p    1 1.00
                 0.727                   1

15 0
 s    3 1.00
                 13.01   0.033498726389998
                 1.962    0.23480080117413
                0.4446     0.8136829578829
 s    1 1.00
                 0.122                   1
 p    1 1.00
                 0.727                   1

16 0
 s    8 1.00
                 11720  0.00070964594651845
                  1759  0.0054672722921914
                 400.8   0.027823118610189
                 113.7    0.10474773971146
                 37.03    0.28292084635691
                 13.27    0.44849523869833
                 5.025    0.27081688521277
                 1.013    0.01545029160744
 s    8 1.00
                 11720  -0.00031444341168873
                  1759  -0.0024821376810179
                 400.8  -0.012316355381583
                 113.7  -0.050538917343672
                 37.03   -0.13938490331632
                 13.27   -0.32507749481778
                 5.025   -0.22984830758785
                 1.013     1.0953793467883
 s    1 1.00
                0.3023                   1
 p    3 1.00
                  17.7   0.062679166281506
                 3.854    0.33353656587936
                 1.046    0.74123964163973
 p    1 1.00
                0.2753                   1
 d    1 1.00
                 1.185                   1

17 0
 s    3 1.00
                 13.01   0.033498726389998
                 1.962    0.23480080117413
                0.4446     0.8136829578829
 s    1 1.00
                 0.122                   1
 p    1 1.00
                 0.727                   1

18 0
 s    3 1.00
                 13.01   0.033498726389998
                 1.962    0.23480080117413
                0.4446     0.8136829578829
 s    1 1.00
                 0.122                   1
 p    1 1.00
                 0.727                   1

19 0
 s    3 1.00
                 13.01   0.033498726389998
                 1.962    0.23480080117413
                0.4446     0.8136829578829
 s    1 1.00
                 0.122                   1
 p    1 1.00
                 0.727                   1

20 0
 s    3 1.00
                 13.01   0.033498726389998
                 1.962    0.23480080117413
                0.4446     0.8136829578829
 s    1 1.00
                 0.122                   1
 p    1 1.00
                 0.727                   1

21 0
 s    3 1.00
                 13.01   0.033498726389998
                 1.962    0.23480080117413
                0.4446     0.8136829578829
 s    1 1.00
                 0.122                   1
 p    1 1.00
                 0.727                   1

22 0
 s    3 1.00
                 13.01   0.033498726389998
                 1.962    0.23480080117413
                0.4446     0.8136829578829
 s    1 1.00
                 0.122                   1
 p    1 1.00
                 0.727                   1

23 0
 s    3 1.00
                 13.01   0.033498726389998
                 1.962    0.23480080117413
                0.4446     0.8136829578829
 s    1 1.00
                 0.122                   1
 p    1 1.00
                 0.727                   1

24 0
 s    3 1.00
                 13.01   0.033498726389998
                 1.962    0.23480080117413
                0.4446     0.8136829578829
 s    1 1.00
                 0.122                   1
 p    1 1.00
                 0.727                   1

[5d]
[7f]
[9g]

[MO]
 Sym= A
 Ene=     -20.5892274
 Spin= Alpha
 Occup=    2.00000
   1    -0.0012632471346494
   2    -0.033582383827223
   3     -0.05761028277787
   4    -0.023641163242177
   5    -0.026151976199343
   6     0.035813943526956
   7    0.0069472537452477
   8    -0.0072656350037885
   9     0.039322423792875
  10    0.0077944615201244
  11     0.015931320528483
  12    0.0092403287594692
  13    0.0036029546439592
  14    -0.0046071030182029
  15    -0.00031011575745694
  16    -0.0043180894979246
  17     0.015844670257898
  18    -0.0025362046597422
  19    0.0037352978681049
  20    0.0056639324122615
  21    -0.0067993557869396
  22    -0.008653937719974
  23    0.0055997205653363
  24    1.3694242237086e-05
  25    0.0005259501488275
  26    -0.00068410300873483
  27    -0.0010128562664147
  28    -0.00087563695168869
  29    -0.0010494441542224
  30    -0.0059305604878903
  31    0.0095297381757491
  32    -0.0065686851631859
  33    -0.003340120680965
  34    0.0036081512729815
  35    -0.00076177393210325
  36    -0.0034512184353792
  37    -0.016004623209011
  38    -0.0013184169393908
  39    -4.4527109263488e-05
  40    -0.00055000592712893
  41    0.00014251963873514
  42    0.00025609122080438
  43     0.001754844276556
  44    -0.018221240406762
  45    -0.046007178885508
  46    -0.021118440261857
  47     0.010842005535037
  48     0.009744127622968
  49    -0.016437610585688
  50     0.027501603491202
  51    -0.0045985575913107
  52     -0.00457938237571
  53    0.0053210576076535
  54    -0.0025207325013572
  55    0.0072145941983875
  56    0.0021379007588258
  57    -0.0059733905962902
  58      0.14770437118834
  59     0.028217091284082
  60      0.19456717559571
  61     0.096725704794905
  62      0.22352841324518
  63     0.033489246699383
  64     0.016038599998013
  65      0.10671159827972
  66     0.018725295543347
  67     0.040392583441929
  68     0.020174385857896
  69     0.013958257231021
  70     0.017275315263035
  71    -0.0096175100869867
  72      0.21121997216059
  73      0.22492214502198
  74     -0.27702247056201
  75     -0.13977569359221
  76     -0.28973832143475
  77     -0.19358906336565
  78     -0.10490328796953
  79     -0.17275086419769
  80    -0.0039161261638021
  81     0.014501502003638
  82    0.0082927074906774
  83    0.0077990593574849
  84     0.011907082723114
  85    0.00081996215323726
  86    0.0022204403892015
  87    -0.0068925894275182
  88    0.00097823416532995
  89    -3.7450098064101e-05
  90    -0.0018810020201124
  91    -0.0011922739408167
  92    -0.00079732148919504
  93    0.0037573781920598
  94    -0.00021007794657868
  95    9.1743981602188e-05
  96    -0.00014875677999859
  97    -0.00011386036381958
  98    5.1104997473418e-05
  99    -5.5653083366575e-05
 100    0.00037893408486035
 101    0.0001077865127008
 102    0.0013761178056286
 103    -8.9574290393816e-06
 104    -0.0004451326749325
 105    0.00058983229408649
 106    0.00051654895896096
 107    0.0017138431556222
 108    2.5954507378712e-06
 109    8.9535896384383e-05
 110    -1.1255695790124e-05
 111    -3.308928647148e-05
 112    -6.1212189425552e-05
 113    -0.0006895341006977
 114    0.0049684243380882
 115     0.025573069504325
 116     0.012248007601061
 117    0.0040364607478809
 118     0.010773667968429
 119     0.015501016148078
 120    -0.00094144016512017
 121    0.0085406029903585
 122    0.00071985418289912
 123    0.00011052092971562
 124    0.00016460430951829
 125    -0.00071546270616501
 126    0.00032998993017483
 127    -0.0004967736562937
 128    -0.017733939492459
 129     0.031007609056919
 130    0.0083860724597759
 131     0.010243283876381
 132    -0.012241005610636
 133    -0.0065598260886089
 134    -0.011486771262843
 135    -0.0045489040540687
 136     0.009727218217307
 137    0.0034104838782379
 138    0.0011830644311781
 139    -0.0020104660979659
 140    -0.0028896009979322
 141    0.0010186103655875
 142    0.0071859333032047
 143    0.0021371746597096
 144     0.004359732083472
 145    0.0043945317132279
 146     0.015247272386422
 147    -0.0022069029881228
 148    -0.00098529735892885
 149     0.012580589890493
 150    -0.00022033086185253
 151    -0.00033929025313964
 152    0.00014806264129365
 153    -5.1695384408895e-05
 154    -0.00014025599983284
 155    9.5007746861395e-05
 156    -0.0068791810138287
 157    -0.00017940929966394
 158    -2.9312482418573e-05
 159    4.914394299283e-05
 160    -0.00060588073279161
 161    0.00029312671287863
 162    0.00025531815498594
 163    -0.00028796352918144
 164    8.6443023963535e-05
 165    0.00056675008112538
 166    -0.0033142290936003
 167    7.0550641673747e-06
 168    0.00016459041304784
 169    0.0015575884435784
 170    -0.0083007140352707
 171    -0.0068887839328468
 172    0.00029730161331604
 173    0.00073182134860222
 174    0.0012370501128791
 175    0.00012618578342784
 176     0.010896675135589
 177     0.017535509149355
 178    -0.013517071177749
 179    -0.0013922666812236
 180    -0.018629944373032
 181    -0.0082091922565741
 182    0.0055043237185307
 183    -0.026229156189695
 184    -0.00080225850192037
 185    -0.00023433618030711
 186    -0.00041471273616863
 187    -0.00039649637738115
 188    -0.00040767262596382
 189    -0.00036639046214433
 190    -0.0093686768768016
 191    -0.00068670106837796
 192    3.5454197341741e-05
 193    0.00069735769520584
 194    -0.006118052219586
 195    -0.0095892365238444
 196    -0.0014757363741996
 197    -0.00041719441201692
 198    0.00081293395951265
 199    0.0032627815610921
 200    0.0050159441406086
 201    0.00039932639366643
 202    0.00018058908871484
 203    -0.00042051989807927
 204    0.00092740693206406
 205    0.0010183738061798
 206    -0.00056754932782083
 207    -0.00024599999246222
 208    0.00044405433684052
 209    -0.0073891482791396
 210    -0.012119986796701
 211    -0.00071681145125964
 212    0.0008009024762675
 213    0.00099668312802755
 214    -0.022422686657356
 215    -0.021297002315674
 216    0.0054566161768118
 217    0.0050274089675919
 218    0.0032647505378898
 219    -0.0032550967393052
 220    0.0029752052768898
 221    0.0011283535312295
 222    0.0011040034591849
 223    4.4593373951379e-05
 224    -0.010314130297543
 225    -0.012111875397478
 226    0.0011037520460409
 227    0.0013199086996916
 228    0.00016597180607422
