[Molden Format]
made by pyscf v[2.1.0]
[Atoms] (AU)
C   1   6     2.32946917320360    -0.63344186613258     2.37168943427863
C   2   6    -0.29669267073509     0.30039086476086     3.22269546913239
C   3   6    -2.28836574026819    -0.45088865332122     1.27613394164491
C   4   6    -1.50258360260379     0.48150977544368    -1.34195877174189
C   5   6     1.17077037184366    -0.47613539434541    -1.98531603085006
O   6   8     2.90615122545875     0.36947547242271    -0.06380660259594
O   7   8    -1.02480036707776    -0.78170410868758     5.58840958940515
O   8   8    -4.71990091118567     0.61286652808832     1.81907682367207
O   9   8    -3.21856263809797    -0.39246777018029    -3.24986406162526
C   10   6     2.14873576665020     0.54311106765225    -4.52137384344336
O   11   8     0.97527064535291    -0.64120108160005    -6.63217335814292
H   12   1     0.34900595904142    -0.48214283369541     6.76077111064570
H   13   1    -5.19719092819319     0.02690592056156     3.48444332437202
H   14   1    -0.83535721281623    -0.49952075513691    -6.37469817367093
H   15   1    -4.90002393620084     0.08874342853570    -2.71063260170675
O   16   8     4.22615893853768     0.10859122202201     4.07505454789134
H   17   1     4.38166639105427     1.93178575891951     3.94362220620171
H   18   1     2.36505838530753    -2.71537014510103     2.34202262384909
H   19   1    -0.22188597236806     2.38358526023277     3.34538215831753
H   20   1    -2.40897751016855    -2.53158672058258     1.22868291865708
H   21   1    -1.45404220764209     2.56502731408288    -1.31752650267738
H   22   1     1.14953551938192    -2.55944317338479    -2.06041941621865
H   23   1     1.89192576577406     2.61534694132780    -4.54974430175146
H   24   1     4.17463555575142     0.13656105839169    -4.65046670419078
[GTO]
1 0
 s    8 1.00
                  6665  0.00069158396281299
                  1000  0.0053257961529341
                   228   0.027060721042034
                 64.71    0.10165684614077
                 21.06     0.2745748236174
                 7.495    0.44829431892377
                 2.797    0.28490261071525
                0.5215   0.015194859206082
 s    8 1.00
                  6665  -0.00029326965268655
                  1000  -0.0023180354739745
                   228  -0.011499786038565
                 64.71  -0.046826727009787
                 21.06   -0.12846616875047
                 7.495   -0.30126627246289
                 2.797   -0.25563070233011
                0.5215      1.093793361012
 s    1 1.00
                0.1596                   1
 p    3 1.00
                 9.439   0.056979251590039
                 2.002    0.31320721150073
                0.5456    0.76037674173753
 p    1 1.00
                0.1517                   1
 d    1 1.00
                  0.55                   1

2 0
 s    8 1.00
                  6665  0.00069158396281299
                  1000  0.0053257961529341
                   228   0.027060721042034
                 64.71    0.10165684614077
                 21.06     0.2745748236174
                 7.495    0.44829431892377
                 2.797    0.28490261071525
                0.5215   0.015194859206082
 s    8 1.00
                  6665  -0.00029326965268655
                  1000  -0.0023180354739745
                   228  -0.011499786038565
                 64.71  -0.046826727009787
                 21.06   -0.12846616875047
                 7.495   -0.30126627246289
                 2.797   -0.25563070233011
                0.5215      1.093793361012
 s    1 1.00
                0.1596                   1
 p    3 1.00
                 9.439   0.056979251590039
                 2.002    0.31320721150073
                0.5456    0.76037674173753
 p    1 1.00
                0.1517                   1
 d    1 1.00
                  0.55                   1

3 0
 s    8 1.00
                  6665  0.00069158396281299
                  1000  0.0053257961529341
                   228   0.027060721042034
                 64.71    0.10165684614077
                 21.06     0.2745748236174
                 7.495    0.44829431892377
                 2.797    0.28490261071525
                0.5215   0.015194859206082
 s    8 1.00
                  6665  -0.00029326965268655
                  1000  -0.0023180354739745
                   228  -0.011499786038565
                 64.71  -0.046826727009787
                 21.06   -0.12846616875047
                 7.495   -0.30126627246289
                 2.797   -0.25563070233011
                0.5215      1.093793361012
 s    1 1.00
                0.1596                   1
 p    3 1.00
                 9.439   0.056979251590039
                 2.002    0.31320721150073
                0.5456    0.76037674173753
 p    1 1.00
                0.1517                   1
 d    1 1.00
                  0.55                   1

4 0
 s    8 1.00
                  6665  0.00069158396281299
                  1000  0.0053257961529341
                   228   0.027060721042034
                 64.71    0.10165684614077
                 21.06     0.2745748236174
                 7.495    0.44829431892377
                 2.797    0.28490261071525
                0.5215   0.015194859206082
 s    8 1.00
                  6665  -0.00029326965268655
                  1000  -0.0023180354739745
                   228  -0.011499786038565
                 64.71  -0.046826727009787
                 21.06   -0.12846616875047
                 7.495   -0.30126627246289
                 2.797   -0.25563070233011
                0.5215      1.093793361012
 s    1 1.00
                0.1596                   1
 p    3 1.00
                 9.439   0.056979251590039
                 2.002    0.31320721150073
                0.5456    0.76037674173753
 p    1 1.00
                0.1517                   1
 d    1 1.00
                  0.55                   1

5 0
 s    8 1.00
                  6665  0.00069158396281299
                  1000  0.0053257961529341
                   228   0.027060721042034
                 64.71    0.10165684614077
                 21.06     0.2745748236174
                 7.495    0.44829431892377
                 2.797    0.28490261071525
                0.5215   0.015194859206082
 s    8 1.00
                  6665  -0.00029326965268655
                  1000  -0.0023180354739745
                   228  -0.011499786038565
                 64.71  -0.046826727009787
                 21.06   -0.12846616875047
                 7.495   -0.30126627246289
                 2.797   -0.25563070233011
                0.5215      1.093793361012
 s    1 1.00
                0.1596                   1
 p    3 1.00
                 9.439   0.056979251590039
                 2.002    0.31320721150073
                0.5456    0.76037674173753
 p    1 1.00
                0.1517                   1
 d    1 1.00
                  0.55                   1

6 0
 s    8 1.00
                 11720  0.00070964594651845
                  1759  0.0054672722921914
                 400.8   0.027823118610189
                 113.7    0.10474773971146
                 37.03    0.28292084635691
                 13.27    0.44849523869833
                 5.025    0.27081688521277
                 1.013    0.01545029160744
 s    8 1.00
                 11720  -0.00031444341168873
                  1759  -0.0024821376810179
                 400.8  -0.012316355381583
                 113.7  -0.050538917343672
                 37.03   -0.13938490331632
                 13.27   -0.32507749481778
                 5.025   -0.22984830758785
                 1.013     1.0953793467883
 s    1 1.00
                0.3023                   1
 p    3 1.00
                  17.7   0.062679166281506
                 3.854    0.33353656587936
                 1.046    0.74123964163973
 p    1 1.00
                0.2753                   1
 d    1 1.00
                 1.185                   1

7 0
 s    8 1.00
                 11720  0.00070964594651845
                  1759  0.0054672722921914
                 400.8   0.027823118610189
                 113.7    0.10474773971146
                 37.03    0.28292084635691
                 13.27    0.44849523869833
                 5.025    0.27081688521277
                 1.013    0.01545029160744
 s    8 1.00
                 11720  -0.00031444341168873
                  1759  -0.0024821376810179
                 400.8  -0.012316355381583
                 113.7  -0.050538917343672
                 37.03   -0.13938490331632
                 13.27   -0.32507749481778
                 5.025   -0.22984830758785
                 1.013     1.0953793467883
 s    1 1.00
                0.3023                   1
 p    3 1.00
                  17.7   0.062679166281506
                 3.854    0.33353656587936
                 1.046    0.74123964163973
 p    1 1.00
                0.2753                   1
 d    1 1.00
                 1.185                   1

8 0
 s    8 1.00
                 11720  0.00070964594651845
                  1759  0.0054672722921914
                 400.8   0.027823118610189
                 113.7    0.10474773971146
                 37.03    0.28292084635691
                 13.27    0.44849523869833
                 5.025    0.27081688521277
                 1.013    0.01545029160744
 s    8 1.00
                 11720  -0.00031444341168873
                  1759  -0.0024821376810179
                 400.8  -0.012316355381583
                 113.7  -0.050538917343672
                 37.03   -0.13938490331632
                 13.27   -0.32507749481778
                 5.025   -0.22984830758785
                 1.013     1.0953793467883
 s    1 1.00
                0.3023                   1
 p    3 1.00
                  17.7   0.062679166281506
                 3.854    0.33353656587936
                 1.046    0.74123964163973
 p    1 1.00
                0.2753                   1
 d    1 1.00
                 1.185                   1

9 0
 s    8 1.00
                 11720  0.00070964594651845
                  1759  0.0054672722921914
                 400.8   0.027823118610189
                 113.7    0.10474773971146
                 37.03    0.28292084635691
                 13.27    0.44849523869833
                 5.025    0.27081688521277
                 1.013    0.01545029160744
 s    8 1.00
                 11720  -0.00031444341168873
                  1759  -0.0024821376810179
                 400.8  -0.012316355381583
                 113.7  -0.050538917343672
                 37.03   -0.13938490331632
                 13.27   -0.32507749481778
                 5.025   -0.22984830758785
                 1.013     1.0953793467883
 s    1 1.00
                0.3023                   1
 p    3 1.00
                  17.7   0.062679166281506
                 3.854    0.33353656587936
                 1.046    0.74123964163973
 p    1 1.00
                0.2753                   1
 d    1 1.00
                 1.185                   1

10 0
 s    8 1.00
                  6665  0.00069158396281299
                  1000  0.0053257961529341
                   228   0.027060721042034
                 64.71    0.10165684614077
                 21.06     0.2745748236174
                 7.495    0.44829431892377
                 2.797    0.28490261071525
                0.5215   0.015194859206082
 s    8 1.00
                  6665  -0.00029326965268655
                  1000  -0.0023180354739745
                   228  -0.011499786038565
                 64.71  -0.046826727009787
                 21.06   -0.12846616875047
                 7.495   -0.30126627246289
                 2.797   -0.25563070233011
                0.5215      1.093793361012
 s    1 1.00
                0.1596                   1
 p    3 1.00
                 9.439   0.056979251590039
                 2.002    0.31320721150073
                0.5456    0.76037674173753
 p    1 1.00
                0.1517                   1
 d    1 1.00
                  0.55                   1

11 0
 s    8 1.00
                 11720  0.00070964594651845
                  1759  0.0054672722921914
                 400.8   0.027823118610189
                 113.7    0.10474773971146
                 37.03    0.28292084635691
                 13.27    0.44849523869833
                 5.025    0.27081688521277
                 1.013    0.01545029160744
 s    8 1.00
                 11720  -0.00031444341168873
                  1759  -0.0024821376810179
                 400.8  -0.012316355381583
                 113.7  -0.050538917343672
                 37.03   -0.13938490331632
                 13.27   -0.32507749481778
                 5.025   -0.22984830758785
                 1.013     1.0953793467883
 s    1 1.00
                0.3023                   1
 p    3 1.00
                  17.7   0.062679166281506
                 3.854    0.33353656587936
                 1.046    0.74123964163973
 p    1 1.00
                0.2753                   1
 d    1 1.00
                 1.185                   1

12 0
 s    3 1.00
                 13.01   0.033498726389998
                 1.962    0.23480080117413
                0.4446     0.8136829578829
 s    1 1.00
                 0.122                   1
 p    1 1.00
                 0.727                   1

13 0
 s    3 1.00
                 13.01   0.033498726389998
                 1.962    0.23480080117413
                0.4446     0.8136829578829
 s    1 1.00
                 0.122                   1
 p    1 1.00
                 0.727                   1

14 0
 s    3 1.00
                 13.01   0.033498726389998
                 1.962    0.23480080117413
                0.4446     0.8136829578829
 s    1 1.00
                 0.122                   1
 p    1 1.00
                 0.727                   1

15 0
 s    3 1.00
                 13.01   0.033498726389998
                 1.962    0.23480080117413
                0.4446     0.8136829578829
 s    1 1.00
                 0.122                   1
 p    1 1.00
                 0.727                   1

16 0
 s    8 1.00
                 11720  0.00070964594651845
                  1759  0.0054672722921914
                 400.8   0.027823118610189
                 113.7    0.10474773971146
                 37.03    0.28292084635691
                 13.27    0.44849523869833
                 5.025    0.27081688521277
                 1.013    0.01545029160744
 s    8 1.00
                 11720  -0.00031444341168873
                  1759  -0.0024821376810179
                 400.8  -0.012316355381583
                 113.7  -0.050538917343672
                 37.03   -0.13938490331632
                 13.27   -0.32507749481778
                 5.025   -0.22984830758785
                 1.013     1.0953793467883
 s    1 1.00
                0.3023                   1
 p    3 1.00
                  17.7   0.062679166281506
                 3.854    0.33353656587936
                 1.046    0.74123964163973
 p    1 1.00
                0.2753                   1
 d    1 1.00
                 1.185                   1

17 0
 s    3 1.00
                 13.01   0.033498726389998
                 1.962    0.23480080117413
                0.4446     0.8136829578829
 s    1 1.00
                 0.122                   1
 p    1 1.00
                 0.727                   1

18 0
 s    3 1.00
                 13.01   0.033498726389998
                 1.962    0.23480080117413
                0.4446     0.8136829578829
 s    1 1.00
                 0.122                   1
 p    1 1.00
                 0.727                   1

19 0
 s    3 1.00
                 13.01   0.033498726389998
                 1.962    0.23480080117413
                0.4446     0.8136829578829
 s    1 1.00
                 0.122                   1
 p    1 1.00
                 0.727                   1

20 0
 s    3 1.00
                 13.01   0.033498726389998
                 1.962    0.23480080117413
                0.4446     0.8136829578829
 s    1 1.00
                 0.122                   1
 p    1 1.00
                 0.727                   1

21 0
 s    3 1.00
                 13.01   0.033498726389998
                 1.962    0.23480080117413
                0.4446     0.8136829578829
 s    1 1.00
                 0.122                   1
 p    1 1.00
                 0.727                   1

22 0
 s    3 1.00
                 13.01   0.033498726389998
                 1.962    0.23480080117413
                0.4446     0.8136829578829
 s    1 1.00
                 0.122                   1
 p    1 1.00
                 0.727                   1

23 0
 s    3 1.00
                 13.01   0.033498726389998
                 1.962    0.23480080117413
                0.4446     0.8136829578829
 s    1 1.00
                 0.122                   1
 p    1 1.00
                 0.727                   1

24 0
 s    3 1.00
                 13.01   0.033498726389998
                 1.962    0.23480080117413
                0.4446     0.8136829578829
 s    1 1.00
                 0.122                   1
 p    1 1.00
                 0.727                   1

[5d]
[7f]
[9g]

[MO]
 Sym= A
 Ene=     -20.5892274
 Spin= Alpha
 Occup=    2.00000
   1    -0.00096969541719287
   2    -0.047836390941147
   3    -0.051727052101678
   4    -0.053056058862404
   5     -0.02139365919442
   6    -0.042885692548266
   7       0.0301417225365
   8     -0.02680774694809
   9     0.013040202657151
  10    0.0033900873201856
  11    0.0052987499577549
  12    -0.013369216477339
  13     0.016290209488546
  14    -0.013215248749839
  15    -0.003849951329598
  16    0.0084705165366435
  17        0.101901847247
  18     0.025926944555866
  19    -0.003025467433132
  20    -0.0086232648213804
  21     0.018044985691504
  22    -0.0091336664620847
  23    -0.038889552350603
  24    0.0010848814038377
  25    -0.0020626489485113
  26    0.00038290678752133
  27    -0.00077931892455992
  28    -0.00057216159303729
  29    0.00057109074591496
  30    -0.0047777953284519
  31    -0.044864099915419
  32    -0.0059779951234537
  33    -0.0047932771024053
  34    -0.0076928858933186
  35    -0.011100178591746
  36    -0.014312500126825
  37    -0.020108784886317
  38    -0.0016719931987973
  39    -0.00070402467643482
  40    -0.00062663949713883
  41    0.0015052715773424
  42    -0.00068935604146157
  43    1.0952925246313e-05
  44    -0.0016556153288265
  45    -0.010880755103744
  46    -0.0020557733303265
  47    0.00089287278376035
  48    -0.0023200491249807
  49    -0.0027306744218863
  50    0.0060061903463491
  51    0.0035549123146631
  52    0.00035337770557831
  53    -0.0010364462442335
  54    -0.00010362486725279
  55    -0.00019039062551966
  56    0.00018365476780415
  57    -0.0020535378148221
  58    -0.0074581236879461
  59    0.0048596323638614
  60    -0.0045632821609322
  61    -0.0043157637950577
  62    -0.0075616402906622
  63    -0.0095402633182342
  64    -0.0061552541811972
  65     0.015336441604993
  66    0.0018862403787599
  67    -4.6777526504898e-05
  68    -3.1210341436727e-05
  69    2.2259332352746e-05
  70    -0.00041213023988516
  71    -0.00093606716271301
  72    0.0046717259678712
  73     0.026350021444795
  74    -0.0047641581804522
  75    -0.0011547444573787
  76     0.011272009816953
  77    -0.0025619556469956
  78    -9.8357635073172e-05
  79     0.017537013933765
  80    -0.0011526829860813
  81    -0.0015137791393656
  82    -0.00045039340157881
  83    0.00066705908628812
  84    -3.6386289952473e-05
  85    0.00047382112095208
  86    0.0005439535821287
  87    -0.0038278090736761
  88    -0.0033793079759769
  89    0.00061083972288273
  90    -0.00028612831656305
  91    -0.0060590140047467
  92    0.0038191668548791
  93    -0.00061138745358231
  94    -1.5491072740115e-05
  95    -0.0008277482575032
  96    3.9795355069936e-05
  97    -0.00031734736613525
  98    2.4884603702926e-05
  99    -0.00055258478062933
 100    0.00044871597719837
 101    0.0087547426497666
 102     0.003937536962426
 103    -0.00031454997948006
 104    0.00071573566676663
 105    0.0094800078633575
 106    0.0004661937388512
 107    0.0022285675866556
 108    0.00010633693786759
 109    -7.0534535673618e-05
 110    -2.839228264629e-06
 111    -8.0543865070812e-05
 112    -2.0008810600787e-05
 113    -0.00032712054631288
 114    -0.00080613815516924
 115    0.0023087266160517
 116    -0.00034392471902342
 117    -1.7888049652599e-05
 118    -0.00012061789683892
 119    0.0017544621857036
 120    0.00029691044411376
 121    -6.4919691803105e-05
 122    -2.787603851956e-05
 123    7.2943864554151e-05
 124    5.4553278287971e-05
 125    1.7693059055779e-05
 126    6.1727390185655e-05
 127    -0.00091450998857219
 128    -6.72053174973e-05
 129      0.01584806732578
 130    -0.00090536411407581
 131    -0.0009595186014585
 132    0.0016247208755116
 133    -0.0047852583640863
 134    -0.0055956204346609
 135    0.0067918254688737
 136    -0.00019616353685577
 137    -0.00027636801820781
 138    -0.00028698900380669
 139    7.3264702304175e-05
 140    0.00013681650580105
 141    9.1799371369667e-05
 142    -0.00039302453371612
 143    -0.0029652103282339
 144    -0.00024107399214865
 145    -0.00021401095069479
 146    -0.0016935119752793
 147    -0.00046625448265873
 148    -0.00010857668738689
 149    -0.0022600527167815
 150    4.4135446044492e-05
 151    -6.5989308891189e-06
 152    -5.4643044509646e-05
 153    -7.869885971555e-06
 154    -1.114834211791e-05
 155    -0.0045607188703634
 156     0.014643985146298
 157    8.5928023599299e-05
 158    -0.00049929156755147
 159    -0.0015440098213357
 160    9.874511074522e-05
 161    0.0045066004374795
 162    0.00048092434632492
 163    -0.00018664666225256
 164    1.512975405666e-05
 165    -0.00039974673976304
 166    0.0010051130836716
 167    7.1729764438387e-05
 168    -6.3026459501614e-05
 169    -1.1458523281163e-05
 170    0.00039606169706259
 171    -0.00058890424532189
 172    -7.9008346660812e-05
 173    -0.00011228221610577
 174    -0.00026855742428315
 175    -0.0022157185912754
 176       0.3450961517653
 177      0.44268274540723
 178      0.31237371913178
 179     -0.28388381809351
 180      0.16447627117882
 181      0.24014940659017
 182     -0.19419498771762
 183      0.12748195665835
 184    0.0033627257845151
 185    -0.010013188723188
 186    0.0068069923096065
 187    0.00016630369276142
 188    0.0089692714956158
 189    -0.090168437152577
 190    -0.023380673821305
 191      0.01665709257207
 192    -0.0019968768017584
 193    0.0061072625282951
 194    -0.039076247956532
 195     -0.02825699892331
 196    -0.0042415033014838
 197    -0.0008524202022381
 198    -0.0030428806017039
 199    0.0049250973501052
 200    -0.014163618013042
 201    -0.0007830728721435
 202    0.00022910289269774
 203    0.00043064684778082
 204    0.0014657461577214
 205    -0.0018536741639486
 206    -0.00049004128887174
 207    0.00021768855043132
 208    2.9682347798702e-05
 209    0.00058539417672584
 210    0.0015061146336285
 211    -0.00025097813220156
 212    -0.00019564983678676
 213    -0.00021527009999527
 214    0.0001960902471537
 215    -0.0028549167965607
 216    -1.6028974063223e-05
 217    8.2291546948883e-05
 218    -0.0012451547501596
 219    0.00013424816086512
 220    0.00095638946529033
 221    8.703761435107e-05
 222    -8.1144349362517e-06
 223    -0.000133448723401
 224    -0.0001140287786259
 225    0.0029705900557925
 226    -0.00010841390684628
 227    0.0001640369470872
 228    -1.9154366586372e-05
