[Molden Format]
made by pyscf v[2.1.0]
[Atoms] (AU)
C   1   6     2.32946917320360    -0.63344186613258     2.37168943427863
C   2   6    -0.29669267073509     0.30039086476086     3.22269546913239
C   3   6    -2.28836574026819    -0.45088865332122     1.27613394164491
C   4   6    -1.50258360260379     0.48150977544368    -1.34195877174189
C   5   6     1.17077037184366    -0.47613539434541    -1.98531603085006
O   6   8     2.90615122545875     0.36947547242271    -0.06380660259594
O   7   8    -1.02480036707776    -0.78170410868758     5.58840958940515
O   8   8    -4.71990091118567     0.61286652808832     1.81907682367207
O   9   8    -3.21856263809797    -0.39246777018029    -3.24986406162526
C   10   6     2.14873576665020     0.54311106765225    -4.52137384344336
O   11   8     0.97527064535291    -0.64120108160005    -6.63217335814292
H   12   1     0.34900595904142    -0.48214283369541     6.76077111064570
H   13   1    -5.19719092819319     0.02690592056156     3.48444332437202
H   14   1    -0.83535721281623    -0.49952075513691    -6.37469817367093
H   15   1    -4.90002393620084     0.08874342853570    -2.71063260170675
O   16   8     4.22615893853768     0.10859122202201     4.07505454789134
H   17   1     4.38166639105427     1.93178575891951     3.94362220620171
H   18   1     2.36505838530753    -2.71537014510103     2.34202262384909
H   19   1    -0.22188597236806     2.38358526023277     3.34538215831753
H   20   1    -2.40897751016855    -2.53158672058258     1.22868291865708
H   21   1    -1.45404220764209     2.56502731408288    -1.31752650267738
H   22   1     1.14953551938192    -2.55944317338479    -2.06041941621865
H   23   1     1.89192576577406     2.61534694132780    -4.54974430175146
H   24   1     4.17463555575142     0.13656105839169    -4.65046670419078
[GTO]
1 0
 s    8 1.00
                  6665  0.00069158396281299
                  1000  0.0053257961529341
                   228   0.027060721042034
                 64.71    0.10165684614077
                 21.06     0.2745748236174
                 7.495    0.44829431892377
                 2.797    0.28490261071525
                0.5215   0.015194859206082
 s    8 1.00
                  6665  -0.00029326965268655
                  1000  -0.0023180354739745
                   228  -0.011499786038565
                 64.71  -0.046826727009787
                 21.06   -0.12846616875047
                 7.495   -0.30126627246289
                 2.797   -0.25563070233011
                0.5215      1.093793361012
 s    1 1.00
                0.1596                   1
 p    3 1.00
                 9.439   0.056979251590039
                 2.002    0.31320721150073
                0.5456    0.76037674173753
 p    1 1.00
                0.1517                   1
 d    1 1.00
                  0.55                   1

2 0
 s    8 1.00
                  6665  0.00069158396281299
                  1000  0.0053257961529341
                   228   0.027060721042034
                 64.71    0.10165684614077
                 21.06     0.2745748236174
                 7.495    0.44829431892377
                 2.797    0.28490261071525
                0.5215   0.015194859206082
 s    8 1.00
                  6665  -0.00029326965268655
                  1000  -0.0023180354739745
                   228  -0.011499786038565
                 64.71  -0.046826727009787
                 21.06   -0.12846616875047
                 7.495   -0.30126627246289
                 2.797   -0.25563070233011
                0.5215      1.093793361012
 s    1 1.00
                0.1596                   1
 p    3 1.00
                 9.439   0.056979251590039
                 2.002    0.31320721150073
                0.5456    0.76037674173753
 p    1 1.00
                0.1517                   1
 d    1 1.00
                  0.55                   1

3 0
 s    8 1.00
                  6665  0.00069158396281299
                  1000  0.0053257961529341
                   228   0.027060721042034
                 64.71    0.10165684614077
                 21.06     0.2745748236174
                 7.495    0.44829431892377
                 2.797    0.28490261071525
                0.5215   0.015194859206082
 s    8 1.00
                  6665  -0.00029326965268655
                  1000  -0.0023180354739745
                   228  -0.011499786038565
                 64.71  -0.046826727009787
                 21.06   -0.12846616875047
                 7.495   -0.30126627246289
                 2.797   -0.25563070233011
                0.5215      1.093793361012
 s    1 1.00
                0.1596                   1
 p    3 1.00
                 9.439   0.056979251590039
                 2.002    0.31320721150073
                0.5456    0.76037674173753
 p    1 1.00
                0.1517                   1
 d    1 1.00
                  0.55                   1

4 0
 s    8 1.00
                  6665  0.00069158396281299
                  1000  0.0053257961529341
                   228   0.027060721042034
                 64.71    0.10165684614077
                 21.06     0.2745748236174
                 7.495    0.44829431892377
                 2.797    0.28490261071525
                0.5215   0.015194859206082
 s    8 1.00
                  6665  -0.00029326965268655
                  1000  -0.0023180354739745
                   228  -0.011499786038565
                 64.71  -0.046826727009787
                 21.06   -0.12846616875047
                 7.495   -0.30126627246289
                 2.797   -0.25563070233011
                0.5215      1.093793361012
 s    1 1.00
                0.1596                   1
 p    3 1.00
                 9.439   0.056979251590039
                 2.002    0.31320721150073
                0.5456    0.76037674173753
 p    1 1.00
                0.1517                   1
 d    1 1.00
                  0.55                   1

5 0
 s    8 1.00
                  6665  0.00069158396281299
                  1000  0.0053257961529341
                   228   0.027060721042034
                 64.71    0.10165684614077
                 21.06     0.2745748236174
                 7.495    0.44829431892377
                 2.797    0.28490261071525
                0.5215   0.015194859206082
 s    8 1.00
                  6665  -0.00029326965268655
                  1000  -0.0023180354739745
                   228  -0.011499786038565
                 64.71  -0.046826727009787
                 21.06   -0.12846616875047
                 7.495   -0.30126627246289
                 2.797   -0.25563070233011
                0.5215      1.093793361012
 s    1 1.00
                0.1596                   1
 p    3 1.00
                 9.439   0.056979251590039
                 2.002    0.31320721150073
                0.5456    0.76037674173753
 p    1 1.00
                0.1517                   1
 d    1 1.00
                  0.55                   1

6 0
 s    8 1.00
                 11720  0.00070964594651845
                  1759  0.0054672722921914
                 400.8   0.027823118610189
                 113.7    0.10474773971146
                 37.03    0.28292084635691
                 13.27    0.44849523869833
                 5.025    0.27081688521277
                 1.013    0.01545029160744
 s    8 1.00
                 11720  -0.00031444341168873
                  1759  -0.0024821376810179
                 400.8  -0.012316355381583
                 113.7  -0.050538917343672
                 37.03   -0.13938490331632
                 13.27   -0.32507749481778
                 5.025   -0.22984830758785
                 1.013     1.0953793467883
 s    1 1.00
                0.3023                   1
 p    3 1.00
                  17.7   0.062679166281506
                 3.854    0.33353656587936
                 1.046    0.74123964163973
 p    1 1.00
                0.2753                   1
 d    1 1.00
                 1.185                   1

7 0
 s    8 1.00
                 11720  0.00070964594651845
                  1759  0.0054672722921914
                 400.8   0.027823118610189
                 113.7    0.10474773971146
                 37.03    0.28292084635691
                 13.27    0.44849523869833
                 5.025    0.27081688521277
                 1.013    0.01545029160744
 s    8 1.00
                 11720  -0.00031444341168873
                  1759  -0.0024821376810179
                 400.8  -0.012316355381583
                 113.7  -0.050538917343672
                 37.03   -0.13938490331632
                 13.27   -0.32507749481778
                 5.025   -0.22984830758785
                 1.013     1.0953793467883
 s    1 1.00
                0.3023                   1
 p    3 1.00
                  17.7   0.062679166281506
                 3.854    0.33353656587936
                 1.046    0.74123964163973
 p    1 1.00
                0.2753                   1
 d    1 1.00
                 1.185                   1

8 0
 s    8 1.00
                 11720  0.00070964594651845
                  1759  0.0054672722921914
                 400.8   0.027823118610189
                 113.7    0.10474773971146
                 37.03    0.28292084635691
                 13.27    0.44849523869833
                 5.025    0.27081688521277
                 1.013    0.01545029160744
 s    8 1.00
                 11720  -0.00031444341168873
                  1759  -0.0024821376810179
                 400.8  -0.012316355381583
                 113.7  -0.050538917343672
                 37.03   -0.13938490331632
                 13.27   -0.32507749481778
                 5.025   -0.22984830758785
                 1.013     1.0953793467883
 s    1 1.00
                0.3023                   1
 p    3 1.00
                  17.7   0.062679166281506
                 3.854    0.33353656587936
                 1.046    0.74123964163973
 p    1 1.00
                0.2753                   1
 d    1 1.00
                 1.185                   1

9 0
 s    8 1.00
                 11720  0.00070964594651845
                  1759  0.0054672722921914
                 400.8   0.027823118610189
                 113.7    0.10474773971146
                 37.03    0.28292084635691
                 13.27    0.44849523869833
                 5.025    0.27081688521277
                 1.013    0.01545029160744
 s    8 1.00
                 11720  -0.00031444341168873
                  1759  -0.0024821376810179
                 400.8  -0.012316355381583
                 113.7  -0.050538917343672
                 37.03   -0.13938490331632
                 13.27   -0.32507749481778
                 5.025   -0.22984830758785
                 1.013     1.0953793467883
 s    1 1.00
                0.3023                   1
 p    3 1.00
                  17.7   0.062679166281506
                 3.854    0.33353656587936
                 1.046    0.74123964163973
 p    1 1.00
                0.2753                   1
 d    1 1.00
                 1.185                   1

10 0
 s    8 1.00
                  6665  0.00069158396281299
                  1000  0.0053257961529341
                   228   0.027060721042034
                 64.71    0.10165684614077
                 21.06     0.2745748236174
                 7.495    0.44829431892377
                 2.797    0.28490261071525
                0.5215   0.015194859206082
 s    8 1.00
                  6665  -0.00029326965268655
                  1000  -0.0023180354739745
                   228  -0.011499786038565
                 64.71  -0.046826727009787
                 21.06   -0.12846616875047
                 7.495   -0.30126627246289
                 2.797   -0.25563070233011
                0.5215      1.093793361012
 s    1 1.00
                0.1596                   1
 p    3 1.00
                 9.439   0.056979251590039
                 2.002    0.31320721150073
                0.5456    0.76037674173753
 p    1 1.00
                0.1517                   1
 d    1 1.00
                  0.55                   1

11 0
 s    8 1.00
                 11720  0.00070964594651845
                  1759  0.0054672722921914
                 400.8   0.027823118610189
                 113.7    0.10474773971146
                 37.03    0.28292084635691
                 13.27    0.44849523869833
                 5.025    0.27081688521277
                 1.013    0.01545029160744
 s    8 1.00
                 11720  -0.00031444341168873
                  1759  -0.0024821376810179
                 400.8  -0.012316355381583
                 113.7  -0.050538917343672
                 37.03   -0.13938490331632
                 13.27   -0.32507749481778
                 5.025   -0.22984830758785
                 1.013     1.0953793467883
 s    1 1.00
                0.3023                   1
 p    3 1.00
                  17.7   0.062679166281506
                 3.854    0.33353656587936
                 1.046    0.74123964163973
 p    1 1.00
                0.2753                   1
 d    1 1.00
                 1.185                   1

12 0
 s    3 1.00
                 13.01   0.033498726389998
                 1.962    0.23480080117413
                0.4446     0.8136829578829
 s    1 1.00
                 0.122                   1
 p    1 1.00
                 0.727                   1

13 0
 s    3 1.00
                 13.01   0.033498726389998
                 1.962    0.23480080117413
                0.4446     0.8136829578829
 s    1 1.00
                 0.122                   1
 p    1 1.00
                 0.727                   1

14 0
 s    3 1.00
                 13.01   0.033498726389998
                 1.962    0.23480080117413
                0.4446     0.8136829578829
 s    1 1.00
                 0.122                   1
 p    1 1.00
                 0.727                   1

15 0
 s    3 1.00
                 13.01   0.033498726389998
                 1.962    0.23480080117413
                0.4446     0.8136829578829
 s    1 1.00
                 0.122                   1
 p    1 1.00
                 0.727                   1

16 0
 s    8 1.00
                 11720  0.00070964594651845
                  1759  0.0054672722921914
                 400.8   0.027823118610189
                 113.7    0.10474773971146
                 37.03    0.28292084635691
                 13.27    0.44849523869833
                 5.025    0.27081688521277
                 1.013    0.01545029160744
 s    8 1.00
                 11720  -0.00031444341168873
                  1759  -0.0024821376810179
                 400.8  -0.012316355381583
                 113.7  -0.050538917343672
                 37.03   -0.13938490331632
                 13.27   -0.32507749481778
                 5.025   -0.22984830758785
                 1.013     1.0953793467883
 s    1 1.00
                0.3023                   1
 p    3 1.00
                  17.7   0.062679166281506
                 3.854    0.33353656587936
                 1.046    0.74123964163973
 p    1 1.00
                0.2753                   1
 d    1 1.00
                 1.185                   1

17 0
 s    3 1.00
                 13.01   0.033498726389998
                 1.962    0.23480080117413
                0.4446     0.8136829578829
 s    1 1.00
                 0.122                   1
 p    1 1.00
                 0.727                   1

18 0
 s    3 1.00
                 13.01   0.033498726389998
                 1.962    0.23480080117413
                0.4446     0.8136829578829
 s    1 1.00
                 0.122                   1
 p    1 1.00
                 0.727                   1

19 0
 s    3 1.00
                 13.01   0.033498726389998
                 1.962    0.23480080117413
                0.4446     0.8136829578829
 s    1 1.00
                 0.122                   1
 p    1 1.00
                 0.727                   1

20 0
 s    3 1.00
                 13.01   0.033498726389998
                 1.962    0.23480080117413
                0.4446     0.8136829578829
 s    1 1.00
                 0.122                   1
 p    1 1.00
                 0.727                   1

21 0
 s    3 1.00
                 13.01   0.033498726389998
                 1.962    0.23480080117413
                0.4446     0.8136829578829
 s    1 1.00
                 0.122                   1
 p    1 1.00
                 0.727                   1

22 0
 s    3 1.00
                 13.01   0.033498726389998
                 1.962    0.23480080117413
                0.4446     0.8136829578829
 s    1 1.00
                 0.122                   1
 p    1 1.00
                 0.727                   1

23 0
 s    3 1.00
                 13.01   0.033498726389998
                 1.962    0.23480080117413
                0.4446     0.8136829578829
 s    1 1.00
                 0.122                   1
 p    1 1.00
                 0.727                   1

24 0
 s    3 1.00
                 13.01   0.033498726389998
                 1.962    0.23480080117413
                0.4446     0.8136829578829
 s    1 1.00
                 0.122                   1
 p    1 1.00
                 0.727                   1

[5d]
[7f]
[9g]

[MO]
 Sym= A
 Ene=     -20.5892274
 Spin= Alpha
 Occup=    2.00000
   1    -0.0015009371116685
   2     0.016244546650704
   3     0.026490168802675
   4    -0.023238672367176
   5    0.0096377443808352
   6    0.00044632538511078
   7    -0.013743783965004
   8     0.016355815151704
   9    0.0001981918991146
  10    -0.0034120149358843
  11    0.0090783200138532
  12    -0.00086224465155972
  13    -0.0035070626370191
  14    -0.0043558837995461
  15    0.0045634874705285
  16     -0.15937545408824
  17    -0.036372286957735
  18     0.077464133750083
  19      0.12850757205634
  20     -0.28474428988313
  21    -0.00087917126361351
  22     0.031175808219824
  23     -0.10031023148193
  24    -0.035601668444004
  25      0.01921174962417
  26     0.032996135832319
  27    0.0019501596526539
  28    -0.0087792160435949
  29    0.00099165546960376
  30     0.014994769558467
  31    -0.040946541764496
  32     0.017053377048776
  33    0.0040424418056596
  34     0.016477463083654
  35    -0.0031746808759363
  36    -0.013834444159767
  37      0.02669609474053
  38    -0.010058142559093
  39    -0.0040277475276975
  40    0.0012873901553546
  41    0.00036041673161664
  42    0.0040900621315363
  43    -0.0033448088044056
  44    -0.015331831256463
  45     0.020179492996804
  46    0.0072882379370422
  47    0.0053181790802008
  48    -0.015474913261451
  49    0.0058328716132194
  50    -0.0033811242349656
  51    0.0084924865017078
  52    0.0014561512209145
  53    0.00033645756372189
  54    -0.00024380230055983
  55    0.00028223725049891
  56    0.0004209286254388
  57    0.00082482803994692
  58    0.00090741489856026
  59    -0.016951707857463
  60    0.0014811498411786
  61    -0.00012808757473506
  62    -0.00079836174155438
  63    0.0039863051347327
  64    -0.0046452045593137
  65    -0.0049525657150603
  66    -0.0010824314393899
  67    0.00086228934451115
  68    -0.00024169703396878
  69    9.0908346986077e-06
  70    0.0002679530780134
  71    0.00012140766927693
  72    -0.005001529594308
  73      -0.0159557434668
  74    0.0089486758193412
  75    0.0040077340089531
  76    -0.014874544877106
  77     0.011714905335093
  78    -0.00052464799816914
  79    -0.017673632555653
  80    7.8151273767752e-05
  81    -0.00018894041831479
  82    0.00013904994415005
  83    2.2064996145431e-05
  84    -0.00023694187956111
  85     0.007832741058479
  86     -0.20707213489801
  87     -0.19833076309673
  88     -0.11077600786775
  89      -0.1733961729041
  90      0.37140479745874
  91     -0.08312846226963
  92     -0.11667157930559
  93      0.23337868359456
  94    -0.0084787346775175
  95     0.015180329450232
  96     0.014008474462781
  97    0.00095675331508802
  98    -0.0075231825629824
  99    0.00029115211308529
 100    0.0024861669224753
 101    0.00079077858657317
 102    0.0036263226378844
 103    -0.001986565110439
 104    0.00091798167083003
 105    0.0046294209031257
 106    -0.00086788511815946
 107    -0.0062513793197229
 108    -0.00080343366257411
 109    0.00024802126383003
 110    7.2551503671765e-05
 111    0.00036637917799065
 112    8.1804743765983e-05
 113    -0.00011195304509394
 114    0.0019595354953964
 115    0.0048962083793719
 116    0.0023548267036738
 117    0.00087484119407255
 118    0.0060882117941917
 119    0.0034294311414459
 120    0.0016224514255011
 121    0.0057852075337803
 122    -0.0004761291194209
 123    -0.000110523285497
 124    0.00013185094812613
 125    9.3405634834794e-05
 126    0.00019156460934466
 127    -0.00079112491336863
 128    -0.0027052739222273
 129    0.00070849758413914
 130    0.00037231928520052
 131    0.00036042962180863
 132    -0.0013525415755131
 133    -0.005158229553696
 134    0.0018413259455896
 135    0.0027582545521059
 136    0.00040216766154566
 137    -0.00012685689196664
 138    6.0094522346618e-07
 139    0.00011691614369537
 140    0.00015124112395622
 141    8.202552094082e-05
 142    0.00048354869645509
 143    0.00025209138651992
 144    1.0678341376563e-05
 145    0.00016008642827312
 146    0.00081919489834286
 147    0.00062070271286982
 148    -0.00018359191555448
 149    -5.1114195746682e-05
 150    -2.9326725236128e-05
 151    2.324108746486e-06
 152    -1.604287518325e-05
 153    -3.6283551247185e-05
 154    2.3097455906559e-05
 155     0.048878404300941
 156     0.047288068633181
 157    -0.0059706498959906
 158    -0.0063750184078835
 159     0.010651142025036
 160    -0.00030456915835779
 161    0.0067376475808078
 162    0.00033325405993495
 163    0.00023786432338393
 164    -0.0011921611329727
 165    0.0001299754974861
 166    -0.0015288698677165
 167    0.00020918365738437
 168    -5.9005216690485e-05
 169    4.4629746361374e-06
 170    0.0015111627443722
 171    0.0016079573479846
 172    2.2687142675168e-05
 173    -0.00024969648669655
 174    0.00019723553588568
 175    0.00031188391741765
 176    0.0012119972778494
 177    -0.0026732624225816
 178    -0.003585564592815
 179    -0.0016051630607326
 180    0.00038535280320852
 181    0.0011058627135657
 182    -0.0023542133419243
 183    2.8079641419723e-05
 184    -0.00016534619745038
 185    0.00041486931927035
 186    -0.0002682456681627
 187    0.00037185876486872
 188    -0.00033695690526896
 189    -0.00024785185996226
 190    -0.0034257629162627
 191    -0.00047925794288674
 192    4.2847563439852e-05
 193    0.00043233518604301
 194    0.0070152195914265
 195      0.01111371140272
 196    -0.0010150922692389
 197    0.00055453347183041
 198    -0.00029428058073258
 199     0.021897122340078
 200     0.024173548085037
 201    0.0028324145661843
 202    0.0053519051403762
 203    -0.0063441403365343
 204     0.009600755235272
 205    0.0084279459803771
 206    0.0011861105089797
 207    0.00079161794427059
 208    -0.00023555214024245
 209    -0.0016419975813433
 210    0.00084685100857836
 211    -0.00017556352563948
 212    0.00048521915707338
 213    -0.0012468692585821
 214    0.0011300193598923
 215    -0.0018094210412838
 216    9.0952099084413e-05
 217    -0.00014293877479421
 218    0.00016615232542286
 219    -0.0011964142992597
 220    0.00037682522747687
 221    0.00018920486986545
 222    -2.0327787692023e-05
 223    -2.2329684331605e-05
 224    -0.00010643059966351
 225    0.0043950306393332
 226    -3.4421934649785e-05
 227    6.9318279612841e-05
 228    -1.9903718898315e-05
