[Molden Format]
made by pyscf v[2.1.0]
[Atoms] (AU)
C   1   6     2.32946917320360    -0.63344186613258     2.37168943427863
C   2   6    -0.29669267073509     0.30039086476086     3.22269546913239
C   3   6    -2.28836574026819    -0.45088865332122     1.27613394164491
C   4   6    -1.50258360260379     0.48150977544368    -1.34195877174189
C   5   6     1.17077037184366    -0.47613539434541    -1.98531603085006
O   6   8     2.90615122545875     0.36947547242271    -0.06380660259594
O   7   8    -1.02480036707776    -0.78170410868758     5.58840958940515
O   8   8    -4.71990091118567     0.61286652808832     1.81907682367207
O   9   8    -3.21856263809797    -0.39246777018029    -3.24986406162526
C   10   6     2.14873576665020     0.54311106765225    -4.52137384344336
O   11   8     0.97527064535291    -0.64120108160005    -6.63217335814292
H   12   1     0.34900595904142    -0.48214283369541     6.76077111064570
H   13   1    -5.19719092819319     0.02690592056156     3.48444332437202
H   14   1    -0.83535721281623    -0.49952075513691    -6.37469817367093
H   15   1    -4.90002393620084     0.08874342853570    -2.71063260170675
O   16   8     4.22615893853768     0.10859122202201     4.07505454789134
H   17   1     4.38166639105427     1.93178575891951     3.94362220620171
H   18   1     2.36505838530753    -2.71537014510103     2.34202262384909
H   19   1    -0.22188597236806     2.38358526023277     3.34538215831753
H   20   1    -2.40897751016855    -2.53158672058258     1.22868291865708
H   21   1    -1.45404220764209     2.56502731408288    -1.31752650267738
H   22   1     1.14953551938192    -2.55944317338479    -2.06041941621865
H   23   1     1.89192576577406     2.61534694132780    -4.54974430175146
H   24   1     4.17463555575142     0.13656105839169    -4.65046670419078
[GTO]
1 0
 s    8 1.00
                  6665  0.00069158396281299
                  1000  0.0053257961529341
                   228   0.027060721042034
                 64.71    0.10165684614077
                 21.06     0.2745748236174
                 7.495    0.44829431892377
                 2.797    0.28490261071525
                0.5215   0.015194859206082
 s    8 1.00
                  6665  -0.00029326965268655
                  1000  -0.0023180354739745
                   228  -0.011499786038565
                 64.71  -0.046826727009787
                 21.06   -0.12846616875047
                 7.495   -0.30126627246289
                 2.797   -0.25563070233011
                0.5215      1.093793361012
 s    1 1.00
                0.1596                   1
 p    3 1.00
                 9.439   0.056979251590039
                 2.002    0.31320721150073
                0.5456    0.76037674173753
 p    1 1.00
                0.1517                   1
 d    1 1.00
                  0.55                   1

2 0
 s    8 1.00
                  6665  0.00069158396281299
                  1000  0.0053257961529341
                   228   0.027060721042034
                 64.71    0.10165684614077
                 21.06     0.2745748236174
                 7.495    0.44829431892377
                 2.797    0.28490261071525
                0.5215   0.015194859206082
 s    8 1.00
                  6665  -0.00029326965268655
                  1000  -0.0023180354739745
                   228  -0.011499786038565
                 64.71  -0.046826727009787
                 21.06   -0.12846616875047
                 7.495   -0.30126627246289
                 2.797   -0.25563070233011
                0.5215      1.093793361012
 s    1 1.00
                0.1596                   1
 p    3 1.00
                 9.439   0.056979251590039
                 2.002    0.31320721150073
                0.5456    0.76037674173753
 p    1 1.00
                0.1517                   1
 d    1 1.00
                  0.55                   1

3 0
 s    8 1.00
                  6665  0.00069158396281299
                  1000  0.0053257961529341
                   228   0.027060721042034
                 64.71    0.10165684614077
                 21.06     0.2745748236174
                 7.495    0.44829431892377
                 2.797    0.28490261071525
                0.5215   0.015194859206082
 s    8 1.00
                  6665  -0.00029326965268655
                  1000  -0.0023180354739745
                   228  -0.011499786038565
                 64.71  -0.046826727009787
                 21.06   -0.12846616875047
                 7.495   -0.30126627246289
                 2.797   -0.25563070233011
                0.5215      1.093793361012
 s    1 1.00
                0.1596                   1
 p    3 1.00
                 9.439   0.056979251590039
                 2.002    0.31320721150073
                0.5456    0.76037674173753
 p    1 1.00
                0.1517                   1
 d    1 1.00
                  0.55                   1

4 0
 s    8 1.00
                  6665  0.00069158396281299
                  1000  0.0053257961529341
                   228   0.027060721042034
                 64.71    0.10165684614077
                 21.06     0.2745748236174
                 7.495    0.44829431892377
                 2.797    0.28490261071525
                0.5215   0.015194859206082
 s    8 1.00
                  6665  -0.00029326965268655
                  1000  -0.0023180354739745
                   228  -0.011499786038565
                 64.71  -0.046826727009787
                 21.06   -0.12846616875047
                 7.495   -0.30126627246289
                 2.797   -0.25563070233011
                0.5215      1.093793361012
 s    1 1.00
                0.1596                   1
 p    3 1.00
                 9.439   0.056979251590039
                 2.002    0.31320721150073
                0.5456    0.76037674173753
 p    1 1.00
                0.1517                   1
 d    1 1.00
                  0.55                   1

5 0
 s    8 1.00
                  6665  0.00069158396281299
                  1000  0.0053257961529341
                   228   0.027060721042034
                 64.71    0.10165684614077
                 21.06     0.2745748236174
                 7.495    0.44829431892377
                 2.797    0.28490261071525
                0.5215   0.015194859206082
 s    8 1.00
                  6665  -0.00029326965268655
                  1000  -0.0023180354739745
                   228  -0.011499786038565
                 64.71  -0.046826727009787
                 21.06   -0.12846616875047
                 7.495   -0.30126627246289
                 2.797   -0.25563070233011
                0.5215      1.093793361012
 s    1 1.00
                0.1596                   1
 p    3 1.00
                 9.439   0.056979251590039
                 2.002    0.31320721150073
                0.5456    0.76037674173753
 p    1 1.00
                0.1517                   1
 d    1 1.00
                  0.55                   1

6 0
 s    8 1.00
                 11720  0.00070964594651845
                  1759  0.0054672722921914
                 400.8   0.027823118610189
                 113.7    0.10474773971146
                 37.03    0.28292084635691
                 13.27    0.44849523869833
                 5.025    0.27081688521277
                 1.013    0.01545029160744
 s    8 1.00
                 11720  -0.00031444341168873
                  1759  -0.0024821376810179
                 400.8  -0.012316355381583
                 113.7  -0.050538917343672
                 37.03   -0.13938490331632
                 13.27   -0.32507749481778
                 5.025   -0.22984830758785
                 1.013     1.0953793467883
 s    1 1.00
                0.3023                   1
 p    3 1.00
                  17.7   0.062679166281506
                 3.854    0.33353656587936
                 1.046    0.74123964163973
 p    1 1.00
                0.2753                   1
 d    1 1.00
                 1.185                   1

7 0
 s    8 1.00
                 11720  0.00070964594651845
                  1759  0.0054672722921914
                 400.8   0.027823118610189
                 113.7    0.10474773971146
                 37.03    0.28292084635691
                 13.27    0.44849523869833
                 5.025    0.27081688521277
                 1.013    0.01545029160744
 s    8 1.00
                 11720  -0.00031444341168873
                  1759  -0.0024821376810179
                 400.8  -0.012316355381583
                 113.7  -0.050538917343672
                 37.03   -0.13938490331632
                 13.27   -0.32507749481778
                 5.025   -0.22984830758785
                 1.013     1.0953793467883
 s    1 1.00
                0.3023                   1
 p    3 1.00
                  17.7   0.062679166281506
                 3.854    0.33353656587936
                 1.046    0.74123964163973
 p    1 1.00
                0.2753                   1
 d    1 1.00
                 1.185                   1

8 0
 s    8 1.00
                 11720  0.00070964594651845
                  1759  0.0054672722921914
                 400.8   0.027823118610189
                 113.7    0.10474773971146
                 37.03    0.28292084635691
                 13.27    0.44849523869833
                 5.025    0.27081688521277
                 1.013    0.01545029160744
 s    8 1.00
                 11720  -0.00031444341168873
                  1759  -0.0024821376810179
                 400.8  -0.012316355381583
                 113.7  -0.050538917343672
                 37.03   -0.13938490331632
                 13.27   -0.32507749481778
                 5.025   -0.22984830758785
                 1.013     1.0953793467883
 s    1 1.00
                0.3023                   1
 p    3 1.00
                  17.7   0.062679166281506
                 3.854    0.33353656587936
                 1.046    0.74123964163973
 p    1 1.00
                0.2753                   1
 d    1 1.00
                 1.185                   1

9 0
 s    8 1.00
                 11720  0.00070964594651845
                  1759  0.0054672722921914
                 400.8   0.027823118610189
                 113.7    0.10474773971146
                 37.03    0.28292084635691
                 13.27    0.44849523869833
                 5.025    0.27081688521277
                 1.013    0.01545029160744
 s    8 1.00
                 11720  -0.00031444341168873
                  1759  -0.0024821376810179
                 400.8  -0.012316355381583
                 113.7  -0.050538917343672
                 37.03   -0.13938490331632
                 13.27   -0.32507749481778
                 5.025   -0.22984830758785
                 1.013     1.0953793467883
 s    1 1.00
                0.3023                   1
 p    3 1.00
                  17.7   0.062679166281506
                 3.854    0.33353656587936
                 1.046    0.74123964163973
 p    1 1.00
                0.2753                   1
 d    1 1.00
                 1.185                   1

10 0
 s    8 1.00
                  6665  0.00069158396281299
                  1000  0.0053257961529341
                   228   0.027060721042034
                 64.71    0.10165684614077
                 21.06     0.2745748236174
                 7.495    0.44829431892377
                 2.797    0.28490261071525
                0.5215   0.015194859206082
 s    8 1.00
                  6665  -0.00029326965268655
                  1000  -0.0023180354739745
                   228  -0.011499786038565
                 64.71  -0.046826727009787
                 21.06   -0.12846616875047
                 7.495   -0.30126627246289
                 2.797   -0.25563070233011
                0.5215      1.093793361012
 s    1 1.00
                0.1596                   1
 p    3 1.00
                 9.439   0.056979251590039
                 2.002    0.31320721150073
                0.5456    0.76037674173753
 p    1 1.00
                0.1517                   1
 d    1 1.00
                  0.55                   1

11 0
 s    8 1.00
                 11720  0.00070964594651845
                  1759  0.0054672722921914
                 400.8   0.027823118610189
                 113.7    0.10474773971146
                 37.03    0.28292084635691
                 13.27    0.44849523869833
                 5.025    0.27081688521277
                 1.013    0.01545029160744
 s    8 1.00
                 11720  -0.00031444341168873
                  1759  -0.0024821376810179
                 400.8  -0.012316355381583
                 113.7  -0.050538917343672
                 37.03   -0.13938490331632
                 13.27   -0.32507749481778
                 5.025   -0.22984830758785
                 1.013     1.0953793467883
 s    1 1.00
                0.3023                   1
 p    3 1.00
                  17.7   0.062679166281506
                 3.854    0.33353656587936
                 1.046    0.74123964163973
 p    1 1.00
                0.2753                   1
 d    1 1.00
                 1.185                   1

12 0
 s    3 1.00
                 13.01   0.033498726389998
                 1.962    0.23480080117413
                0.4446     0.8136829578829
 s    1 1.00
                 0.122                   1
 p    1 1.00
                 0.727                   1

13 0
 s    3 1.00
                 13.01   0.033498726389998
                 1.962    0.23480080117413
                0.4446     0.8136829578829
 s    1 1.00
                 0.122                   1
 p    1 1.00
                 0.727                   1

14 0
 s    3 1.00
                 13.01   0.033498726389998
                 1.962    0.23480080117413
                0.4446     0.8136829578829
 s    1 1.00
                 0.122                   1
 p    1 1.00
                 0.727                   1

15 0
 s    3 1.00
                 13.01   0.033498726389998
                 1.962    0.23480080117413
                0.4446     0.8136829578829
 s    1 1.00
                 0.122                   1
 p    1 1.00
                 0.727                   1

16 0
 s    8 1.00
                 11720  0.00070964594651845
                  1759  0.0054672722921914
                 400.8   0.027823118610189
                 113.7    0.10474773971146
                 37.03    0.28292084635691
                 13.27    0.44849523869833
                 5.025    0.27081688521277
                 1.013    0.01545029160744
 s    8 1.00
                 11720  -0.00031444341168873
                  1759  -0.0024821376810179
                 400.8  -0.012316355381583
                 113.7  -0.050538917343672
                 37.03   -0.13938490331632
                 13.27   -0.32507749481778
                 5.025   -0.22984830758785
                 1.013     1.0953793467883
 s    1 1.00
                0.3023                   1
 p    3 1.00
                  17.7   0.062679166281506
                 3.854    0.33353656587936
                 1.046    0.74123964163973
 p    1 1.00
                0.2753                   1
 d    1 1.00
                 1.185                   1

17 0
 s    3 1.00
                 13.01   0.033498726389998
                 1.962    0.23480080117413
                0.4446     0.8136829578829
 s    1 1.00
                 0.122                   1
 p    1 1.00
                 0.727                   1

18 0
 s    3 1.00
                 13.01   0.033498726389998
                 1.962    0.23480080117413
                0.4446     0.8136829578829
 s    1 1.00
                 0.122                   1
 p    1 1.00
                 0.727                   1

19 0
 s    3 1.00
                 13.01   0.033498726389998
                 1.962    0.23480080117413
                0.4446     0.8136829578829
 s    1 1.00
                 0.122                   1
 p    1 1.00
                 0.727                   1

20 0
 s    3 1.00
                 13.01   0.033498726389998
                 1.962    0.23480080117413
                0.4446     0.8136829578829
 s    1 1.00
                 0.122                   1
 p    1 1.00
                 0.727                   1

21 0
 s    3 1.00
                 13.01   0.033498726389998
                 1.962    0.23480080117413
                0.4446     0.8136829578829
 s    1 1.00
                 0.122                   1
 p    1 1.00
                 0.727                   1

22 0
 s    3 1.00
                 13.01   0.033498726389998
                 1.962    0.23480080117413
                0.4446     0.8136829578829
 s    1 1.00
                 0.122                   1
 p    1 1.00
                 0.727                   1

23 0
 s    3 1.00
                 13.01   0.033498726389998
                 1.962    0.23480080117413
                0.4446     0.8136829578829
 s    1 1.00
                 0.122                   1
 p    1 1.00
                 0.727                   1

24 0
 s    3 1.00
                 13.01   0.033498726389998
                 1.962    0.23480080117413
                0.4446     0.8136829578829
 s    1 1.00
                 0.122                   1
 p    1 1.00
                 0.727                   1

[5d]
[7f]
[9g]

[MO]
 Sym= A
 Ene=     -20.5892274
 Spin= Alpha
 Occup=    2.00000
   1    0.00053196191506065
   2    0.0010182869917087
   3    -0.0023188872066286
   4    0.0001215514282665
   5    7.5231778650303e-05
   6    -0.00016491241311669
   7    0.00054840613429014
   8    -0.0025939181595011
   9    0.0024708264550257
  10    -0.0001594513338315
  11    -0.00035596868432468
  12    -0.00012790856001824
  13    -0.00022806992380219
  14    -4.1131998772447e-05
  15    0.00027543782281204
  16    0.00044876124094761
  17    -0.0040129698160513
  18    0.00075264518386563
  19    -1.6247099306007e-05
  20    0.00014644714982193
  21    0.0035116015635325
  22    0.0021113273338036
  23    0.0014582343479005
  24    -1.2556612637533e-05
  25    -0.00015244667412626
  26    -4.6276299406557e-05
  27    -0.0001597517344287
  28    -3.6745142771171e-05
  29    8.3095950127491e-05
  30    0.00082863461677532
  31    0.0077060787256628
  32    -9.1215686429611e-05
  33    0.00016467842214128
  34    -0.0012473936651022
  35    0.0040968336616264
  36    0.0032127816247112
  37    0.0017690917840174
  38    -0.00030827442823347
  39    0.00012324995670223
  40    -0.00034540823318066
  41    -0.00027566167210457
  42    0.00017343098561551
  43    0.0010477452051952
  44    0.0017161803287135
  45    -0.011226036419101
  46     0.000673633486455
  47    0.00025722089465887
  48    -0.0020143409408818
  49    -0.0085878660396025
  50    -0.0047637573713678
  51    -0.0060096159316142
  52    0.00030276997998005
  53    2.0763116524959e-05
  54    0.0002556003635864
  55    -0.0010955489187009
  56    -7.4248604989201e-05
  57    0.00041775039264524
  58    0.0085317465629635
  59     0.018932188121205
  60    0.0004832865153099
  61     0.002118993060703
  62    -0.012684555155008
  63    0.0037137341213443
  64       0.0260958860993
  65     0.006302683704835
  66    0.00096138102419089
  67    0.0003300435340285
  68    0.00041162491564151
  69    -0.00014412661257901
  70    -0.0014151513708164
  71    0.00068899139269129
  72    0.00057272338818118
  73    -0.006731729051205
  74    0.0024439391594113
  75    0.00036765788976544
  76    0.0012937589270401
  77    0.0056939638421737
  78    -9.6457397127063e-05
  79    0.0028703020808523
  80    0.00018894956241723
  81    4.1817807447597e-05
  82    -4.9914459022568e-05
  83    -0.00024047694279907
  84    -0.00015556945516105
  85    -6.0462104857565e-05
  86    -4.3066404603923e-05
  87    0.0010813752576636
  88    -9.3166118990885e-05
  89    3.8930898974851e-05
  90    -7.1326499475464e-05
  91    -0.00029037994264302
  92    -7.3522513008506e-05
  93    -0.00028978500185468
  94    -1.545242143738e-05
  95    -1.9555689048595e-05
  96    6.2680292735862e-06
  97    -2.6667649106405e-06
  98    1.5128237398488e-06
  99    8.846129100184e-05
 100    0.00040190183906479
 101    0.00023081975027168
 102    -0.00016094870344548
 103    -9.889050178812e-05
 104    -0.00071130883377477
 105    -0.00074053311588283
 106    -0.00057095779702837
 107    4.5573823703519e-05
 108    -5.9420165225032e-05
 109    -6.9523621211493e-05
 110    -1.4917410144803e-06
 111    -8.6809549581961e-06
 112    -3.1862866410991e-05
 113    0.0010609144447627
 114     0.005697562936392
 115     0.007901010962653
 116    0.0059768132068237
 117    0.0011458333232262
 118    -0.0084614458089564
 119    0.00098146907786677
 120    0.00026824357234022
 121    -0.0091525875472677
 122    -0.00079183972765637
 123    0.0017987147325102
 124    -0.00016758970391421
 125    -0.00082533711204376
 126    0.00031978483824936
 127     0.002045162180687
 128     0.027569803992617
 129     0.038798250210548
 130    -0.017129599896652
 131    -0.018894273116411
 132    -0.036440509396906
 133    -0.0088737835753915
 134    -0.029917511515519
 135    -0.039745707385383
 136     0.012688213166494
 137     -0.01151862336069
 138    0.0070087394031726
 139    -0.013987215185435
 140    -0.0049680727525242
 141    0.0066401174680057
 142     -0.22773851163324
 143     -0.15670912858659
 144       0.4194722491763
 145    -0.026217463614145
 146    -0.038903494725604
 147      0.19534777294094
 148    -0.019922055985318
 149    -0.028741946762878
 150    0.0064128941180925
 151     0.011524479193206
 152    -0.00017802829278686
 153    -0.011527819694985
 154    0.0066188135126956
 155    -0.00022156395307263
 156    -0.00052679841691962
 157    -1.9295814061851e-05
 158    4.5416035526524e-06
 159    7.8651003205548e-05
 160    -0.00062569052009215
 161    3.7081358372602e-05
 162    -0.0001124571950967
 163    -4.7076887342316e-05
 164    9.1612849758316e-05
 165      -0.4117132405513
 166    -0.060220112056517
 167    -0.061916539098339
 168    0.0022257856559541
 169    0.0064969478243535
 170    -0.0083658271424252
 171    -0.0056039985647068
 172    -0.00025581727231601
 173    0.00034426737096082
 174    -0.0010663244359944
 175    3.5333194764343e-05
 176    -0.00010287686398296
 177    -0.00033050170277401
 178    0.00019943379628738
 179    3.2507386807871e-05
 180    0.00046814398794885
 181    0.00046246852497246
 182    0.0005720748717981
 183    0.00011131553681832
 184    7.0027481352546e-06
 185    1.9736234644268e-05
 186    1.8077915995456e-05
 187    -1.639974166279e-05
 188    1.5540639091356e-05
 189    -4.1262755856525e-05
 190    -0.00019513261279412
 191    -3.0816619229368e-05
 192    8.9029897557741e-05
 193    -2.8539434088155e-05
 194    1.8285337937337e-05
 195    -0.0017189781547316
 196    -2.0072069573682e-05
 197    -0.00011626223965677
 198    -9.677941984009e-05
 199    -9.0277145316897e-05
 200    -0.00083203343776315
 201    6.9071557796784e-06
 202    3.0014237747182e-05
 203    -3.5959525353184e-05
 204    0.00051811606456984
 205    0.00075738173282134
 206    -0.00010144996091131
 207    -6.8679151647029e-05
 208    -0.00010023644025239
 209    -0.00029121795490171
 210    0.0024895701858655
 211    0.00024839817666015
 212    0.00025885841070103
 213    -2.7495834781564e-06
 214    0.0050550356835519
 215    0.0099863692604475
 216    -7.3485032048131e-06
 217    0.00073445386320992
 218    -0.0006985948413073
 219      0.01030861380436
 220      0.01276703413708
 221    -0.00090345544172886
 222    0.00022146296219246
 223    -0.0004739102098117
 224    -0.029436846638681
 225    -0.034963517919759
 226    -0.0007157277876726
 227    0.0017199774317896
 228    0.0018995106134223
