[Molden Format]
made by pyscf v[2.1.0]
[Atoms] (AU)
C   1   6     2.32946917320360    -0.63344186613258     2.37168943427863
C   2   6    -0.29669267073509     0.30039086476086     3.22269546913239
C   3   6    -2.28836574026819    -0.45088865332122     1.27613394164491
C   4   6    -1.50258360260379     0.48150977544368    -1.34195877174189
C   5   6     1.17077037184366    -0.47613539434541    -1.98531603085006
O   6   8     2.90615122545875     0.36947547242271    -0.06380660259594
O   7   8    -1.02480036707776    -0.78170410868758     5.58840958940515
O   8   8    -4.71990091118567     0.61286652808832     1.81907682367207
O   9   8    -3.21856263809797    -0.39246777018029    -3.24986406162526
C   10   6     2.14873576665020     0.54311106765225    -4.52137384344336
O   11   8     0.97527064535291    -0.64120108160005    -6.63217335814292
H   12   1     0.34900595904142    -0.48214283369541     6.76077111064570
H   13   1    -5.19719092819319     0.02690592056156     3.48444332437202
H   14   1    -0.83535721281623    -0.49952075513691    -6.37469817367093
H   15   1    -4.90002393620084     0.08874342853570    -2.71063260170675
O   16   8     4.22615893853768     0.10859122202201     4.07505454789134
H   17   1     4.38166639105427     1.93178575891951     3.94362220620171
H   18   1     2.36505838530753    -2.71537014510103     2.34202262384909
H   19   1    -0.22188597236806     2.38358526023277     3.34538215831753
H   20   1    -2.40897751016855    -2.53158672058258     1.22868291865708
H   21   1    -1.45404220764209     2.56502731408288    -1.31752650267738
H   22   1     1.14953551938192    -2.55944317338479    -2.06041941621865
H   23   1     1.89192576577406     2.61534694132780    -4.54974430175146
H   24   1     4.17463555575142     0.13656105839169    -4.65046670419078
[GTO]
1 0
 s    8 1.00
                  6665  0.00069158396281299
                  1000  0.0053257961529341
                   228   0.027060721042034
                 64.71    0.10165684614077
                 21.06     0.2745748236174
                 7.495    0.44829431892377
                 2.797    0.28490261071525
                0.5215   0.015194859206082
 s    8 1.00
                  6665  -0.00029326965268655
                  1000  -0.0023180354739745
                   228  -0.011499786038565
                 64.71  -0.046826727009787
                 21.06   -0.12846616875047
                 7.495   -0.30126627246289
                 2.797   -0.25563070233011
                0.5215      1.093793361012
 s    1 1.00
                0.1596                   1
 p    3 1.00
                 9.439   0.056979251590039
                 2.002    0.31320721150073
                0.5456    0.76037674173753
 p    1 1.00
                0.1517                   1
 d    1 1.00
                  0.55                   1

2 0
 s    8 1.00
                  6665  0.00069158396281299
                  1000  0.0053257961529341
                   228   0.027060721042034
                 64.71    0.10165684614077
                 21.06     0.2745748236174
                 7.495    0.44829431892377
                 2.797    0.28490261071525
                0.5215   0.015194859206082
 s    8 1.00
                  6665  -0.00029326965268655
                  1000  -0.0023180354739745
                   228  -0.011499786038565
                 64.71  -0.046826727009787
                 21.06   -0.12846616875047
                 7.495   -0.30126627246289
                 2.797   -0.25563070233011
                0.5215      1.093793361012
 s    1 1.00
                0.1596                   1
 p    3 1.00
                 9.439   0.056979251590039
                 2.002    0.31320721150073
                0.5456    0.76037674173753
 p    1 1.00
                0.1517                   1
 d    1 1.00
                  0.55                   1

3 0
 s    8 1.00
                  6665  0.00069158396281299
                  1000  0.0053257961529341
                   228   0.027060721042034
                 64.71    0.10165684614077
                 21.06     0.2745748236174
                 7.495    0.44829431892377
                 2.797    0.28490261071525
                0.5215   0.015194859206082
 s    8 1.00
                  6665  -0.00029326965268655
                  1000  -0.0023180354739745
                   228  -0.011499786038565
                 64.71  -0.046826727009787
                 21.06   -0.12846616875047
                 7.495   -0.30126627246289
                 2.797   -0.25563070233011
                0.5215      1.093793361012
 s    1 1.00
                0.1596                   1
 p    3 1.00
                 9.439   0.056979251590039
                 2.002    0.31320721150073
                0.5456    0.76037674173753
 p    1 1.00
                0.1517                   1
 d    1 1.00
                  0.55                   1

4 0
 s    8 1.00
                  6665  0.00069158396281299
                  1000  0.0053257961529341
                   228   0.027060721042034
                 64.71    0.10165684614077
                 21.06     0.2745748236174
                 7.495    0.44829431892377
                 2.797    0.28490261071525
                0.5215   0.015194859206082
 s    8 1.00
                  6665  -0.00029326965268655
                  1000  -0.0023180354739745
                   228  -0.011499786038565
                 64.71  -0.046826727009787
                 21.06   -0.12846616875047
                 7.495   -0.30126627246289
                 2.797   -0.25563070233011
                0.5215      1.093793361012
 s    1 1.00
                0.1596                   1
 p    3 1.00
                 9.439   0.056979251590039
                 2.002    0.31320721150073
                0.5456    0.76037674173753
 p    1 1.00
                0.1517                   1
 d    1 1.00
                  0.55                   1

5 0
 s    8 1.00
                  6665  0.00069158396281299
                  1000  0.0053257961529341
                   228   0.027060721042034
                 64.71    0.10165684614077
                 21.06     0.2745748236174
                 7.495    0.44829431892377
                 2.797    0.28490261071525
                0.5215   0.015194859206082
 s    8 1.00
                  6665  -0.00029326965268655
                  1000  -0.0023180354739745
                   228  -0.011499786038565
                 64.71  -0.046826727009787
                 21.06   -0.12846616875047
                 7.495   -0.30126627246289
                 2.797   -0.25563070233011
                0.5215      1.093793361012
 s    1 1.00
                0.1596                   1
 p    3 1.00
                 9.439   0.056979251590039
                 2.002    0.31320721150073
                0.5456    0.76037674173753
 p    1 1.00
                0.1517                   1
 d    1 1.00
                  0.55                   1

6 0
 s    8 1.00
                 11720  0.00070964594651845
                  1759  0.0054672722921914
                 400.8   0.027823118610189
                 113.7    0.10474773971146
                 37.03    0.28292084635691
                 13.27    0.44849523869833
                 5.025    0.27081688521277
                 1.013    0.01545029160744
 s    8 1.00
                 11720  -0.00031444341168873
                  1759  -0.0024821376810179
                 400.8  -0.012316355381583
                 113.7  -0.050538917343672
                 37.03   -0.13938490331632
                 13.27   -0.32507749481778
                 5.025   -0.22984830758785
                 1.013     1.0953793467883
 s    1 1.00
                0.3023                   1
 p    3 1.00
                  17.7   0.062679166281506
                 3.854    0.33353656587936
                 1.046    0.74123964163973
 p    1 1.00
                0.2753                   1
 d    1 1.00
                 1.185                   1

7 0
 s    8 1.00
                 11720  0.00070964594651845
                  1759  0.0054672722921914
                 400.8   0.027823118610189
                 113.7    0.10474773971146
                 37.03    0.28292084635691
                 13.27    0.44849523869833
                 5.025    0.27081688521277
                 1.013    0.01545029160744
 s    8 1.00
                 11720  -0.00031444341168873
                  1759  -0.0024821376810179
                 400.8  -0.012316355381583
                 113.7  -0.050538917343672
                 37.03   -0.13938490331632
                 13.27   -0.32507749481778
                 5.025   -0.22984830758785
                 1.013     1.0953793467883
 s    1 1.00
                0.3023                   1
 p    3 1.00
                  17.7   0.062679166281506
                 3.854    0.33353656587936
                 1.046    0.74123964163973
 p    1 1.00
                0.2753                   1
 d    1 1.00
                 1.185                   1

8 0
 s    8 1.00
                 11720  0.00070964594651845
                  1759  0.0054672722921914
                 400.8   0.027823118610189
                 113.7    0.10474773971146
                 37.03    0.28292084635691
                 13.27    0.44849523869833
                 5.025    0.27081688521277
                 1.013    0.01545029160744
 s    8 1.00
                 11720  -0.00031444341168873
                  1759  -0.0024821376810179
                 400.8  -0.012316355381583
                 113.7  -0.050538917343672
                 37.03   -0.13938490331632
                 13.27   -0.32507749481778
                 5.025   -0.22984830758785
                 1.013     1.0953793467883
 s    1 1.00
                0.3023                   1
 p    3 1.00
                  17.7   0.062679166281506
                 3.854    0.33353656587936
                 1.046    0.74123964163973
 p    1 1.00
                0.2753                   1
 d    1 1.00
                 1.185                   1

9 0
 s    8 1.00
                 11720  0.00070964594651845
                  1759  0.0054672722921914
                 400.8   0.027823118610189
                 113.7    0.10474773971146
                 37.03    0.28292084635691
                 13.27    0.44849523869833
                 5.025    0.27081688521277
                 1.013    0.01545029160744
 s    8 1.00
                 11720  -0.00031444341168873
                  1759  -0.0024821376810179
                 400.8  -0.012316355381583
                 113.7  -0.050538917343672
                 37.03   -0.13938490331632
                 13.27   -0.32507749481778
                 5.025   -0.22984830758785
                 1.013     1.0953793467883
 s    1 1.00
                0.3023                   1
 p    3 1.00
                  17.7   0.062679166281506
                 3.854    0.33353656587936
                 1.046    0.74123964163973
 p    1 1.00
                0.2753                   1
 d    1 1.00
                 1.185                   1

10 0
 s    8 1.00
                  6665  0.00069158396281299
                  1000  0.0053257961529341
                   228   0.027060721042034
                 64.71    0.10165684614077
                 21.06     0.2745748236174
                 7.495    0.44829431892377
                 2.797    0.28490261071525
                0.5215   0.015194859206082
 s    8 1.00
                  6665  -0.00029326965268655
                  1000  -0.0023180354739745
                   228  -0.011499786038565
                 64.71  -0.046826727009787
                 21.06   -0.12846616875047
                 7.495   -0.30126627246289
                 2.797   -0.25563070233011
                0.5215      1.093793361012
 s    1 1.00
                0.1596                   1
 p    3 1.00
                 9.439   0.056979251590039
                 2.002    0.31320721150073
                0.5456    0.76037674173753
 p    1 1.00
                0.1517                   1
 d    1 1.00
                  0.55                   1

11 0
 s    8 1.00
                 11720  0.00070964594651845
                  1759  0.0054672722921914
                 400.8   0.027823118610189
                 113.7    0.10474773971146
                 37.03    0.28292084635691
                 13.27    0.44849523869833
                 5.025    0.27081688521277
                 1.013    0.01545029160744
 s    8 1.00
                 11720  -0.00031444341168873
                  1759  -0.0024821376810179
                 400.8  -0.012316355381583
                 113.7  -0.050538917343672
                 37.03   -0.13938490331632
                 13.27   -0.32507749481778
                 5.025   -0.22984830758785
                 1.013     1.0953793467883
 s    1 1.00
                0.3023                   1
 p    3 1.00
                  17.7   0.062679166281506
                 3.854    0.33353656587936
                 1.046    0.74123964163973
 p    1 1.00
                0.2753                   1
 d    1 1.00
                 1.185                   1

12 0
 s    3 1.00
                 13.01   0.033498726389998
                 1.962    0.23480080117413
                0.4446     0.8136829578829
 s    1 1.00
                 0.122                   1
 p    1 1.00
                 0.727                   1

13 0
 s    3 1.00
                 13.01   0.033498726389998
                 1.962    0.23480080117413
                0.4446     0.8136829578829
 s    1 1.00
                 0.122                   1
 p    1 1.00
                 0.727                   1

14 0
 s    3 1.00
                 13.01   0.033498726389998
                 1.962    0.23480080117413
                0.4446     0.8136829578829
 s    1 1.00
                 0.122                   1
 p    1 1.00
                 0.727                   1

15 0
 s    3 1.00
                 13.01   0.033498726389998
                 1.962    0.23480080117413
                0.4446     0.8136829578829
 s    1 1.00
                 0.122                   1
 p    1 1.00
                 0.727                   1

16 0
 s    8 1.00
                 11720  0.00070964594651845
                  1759  0.0054672722921914
                 400.8   0.027823118610189
                 113.7    0.10474773971146
                 37.03    0.28292084635691
                 13.27    0.44849523869833
                 5.025    0.27081688521277
                 1.013    0.01545029160744
 s    8 1.00
                 11720  -0.00031444341168873
                  1759  -0.0024821376810179
                 400.8  -0.012316355381583
                 113.7  -0.050538917343672
                 37.03   -0.13938490331632
                 13.27   -0.32507749481778
                 5.025   -0.22984830758785
                 1.013     1.0953793467883
 s    1 1.00
                0.3023                   1
 p    3 1.00
                  17.7   0.062679166281506
                 3.854    0.33353656587936
                 1.046    0.74123964163973
 p    1 1.00
                0.2753                   1
 d    1 1.00
                 1.185                   1

17 0
 s    3 1.00
                 13.01   0.033498726389998
                 1.962    0.23480080117413
                0.4446     0.8136829578829
 s    1 1.00
                 0.122                   1
 p    1 1.00
                 0.727                   1

18 0
 s    3 1.00
                 13.01   0.033498726389998
                 1.962    0.23480080117413
                0.4446     0.8136829578829
 s    1 1.00
                 0.122                   1
 p    1 1.00
                 0.727                   1

19 0
 s    3 1.00
                 13.01   0.033498726389998
                 1.962    0.23480080117413
                0.4446     0.8136829578829
 s    1 1.00
                 0.122                   1
 p    1 1.00
                 0.727                   1

20 0
 s    3 1.00
                 13.01   0.033498726389998
                 1.962    0.23480080117413
                0.4446     0.8136829578829
 s    1 1.00
                 0.122                   1
 p    1 1.00
                 0.727                   1

21 0
 s    3 1.00
                 13.01   0.033498726389998
                 1.962    0.23480080117413
                0.4446     0.8136829578829
 s    1 1.00
                 0.122                   1
 p    1 1.00
                 0.727                   1

22 0
 s    3 1.00
                 13.01   0.033498726389998
                 1.962    0.23480080117413
                0.4446     0.8136829578829
 s    1 1.00
                 0.122                   1
 p    1 1.00
                 0.727                   1

23 0
 s    3 1.00
                 13.01   0.033498726389998
                 1.962    0.23480080117413
                0.4446     0.8136829578829
 s    1 1.00
                 0.122                   1
 p    1 1.00
                 0.727                   1

24 0
 s    3 1.00
                 13.01   0.033498726389998
                 1.962    0.23480080117413
                0.4446     0.8136829578829
 s    1 1.00
                 0.122                   1
 p    1 1.00
                 0.727                   1

[5d]
[7f]
[9g]

[MO]
 Sym= A
 Ene=     -20.5892274
 Spin= Alpha
 Occup=    2.00000
   1    -0.0034488097877334
   2      0.16585996520386
   3     0.042012605003625
   4     0.075572637696738
   5      0.12567551236825
   6     -0.28866553747953
   7    -0.0035618610669221
   8     0.015214025917874
   9    -0.075163519769617
  10     0.040302300973545
  11    -0.015236826664314
  12    -0.031573666887147
  13    -0.0044655122932613
  14    0.0067853944506899
  15    0.0019088990581715
  16    -0.019541359488626
  17     -0.05402231825668
  18    -0.026153171497072
  19     0.011723782909461
  20    0.0036906485034362
  21    -0.0015840037812795
  22     0.037811255308584
  23     0.004664325191398
  24    0.0021347988262408
  25    -0.0080824329259445
  26    0.00097672689453163
  27    0.0038522343846487
  28    0.0036914627002518
  29    -0.0018624391432145
  30    -0.0047863252421038
  31     0.030107117114131
  32    -0.0061897596287681
  33    -0.0019207491346824
  34    -0.00036248991892528
  35       0.0127687645505
  36    -0.0049584615442021
  37      0.01438838757143
  38    0.00010123353980958
  39    -0.00061712566269554
  40    0.00034418009083182
  41    -0.00035338182233787
  42    0.00061634688888082
  43    0.00054797784126947
  44    -0.0031585347085226
  45    0.0036753946817875
  46    -0.0058478025481748
  47    0.0039727291119897
  48    -0.0028451933219205
  49    -0.010967220290032
  50    -0.0023435387130986
  51    -0.0058394596739773
  52    0.00077805112352737
  53    -0.0006713912312883
  54    0.0011586324572802
  55    -0.00083612665896329
  56    -2.8498031791274e-05
  57    -0.0005174027395387
  58    -0.025368988424422
  59    -0.043530420857884
  60    -0.032477047504504
  61    -0.017309242074772
  62     -0.03140887876242
  63    -0.015320380404569
  64    -0.0037097703905821
  65    -0.043565174757874
  66     0.013898336965855
  67    -0.0039681958221923
  68    -0.0066478069778103
  69    -0.002959852618902
  70    -0.0079331741586237
  71    -0.010114653928798
  72      0.21081737526162
  73      0.22746096499151
  74    -0.099156780048965
  75     -0.16623361955557
  76      0.37391104706398
  77     -0.08750972024821
  78     -0.12200904927503
  79      0.23587973028578
  80    0.0093483412308896
  81    -0.013550865502901
  82    -0.014306009785468
  83    -0.0012921359627116
  84    0.0069939501337049
  85    -0.00062965352556912
  86    0.0040881759728251
  87     0.021008988136784
  88    0.0078568468835787
  89    0.0039174781718828
  90    -0.014518282772705
  91      0.01046665341895
  92    4.0458865480617e-05
  93    -0.022551978503001
  94    0.0001704923220802
  95    0.00014299333734042
  96    -0.00025380742866499
  97    -0.00016007577413062
  98    0.00014199384030698
  99    -0.00017780274458644
 100    -0.00042676248817125
 101    -0.00048651984904567
 102    -0.00016617002404825
 103    0.00053402822262613
 104    -4.5581688298054e-05
 105    -0.0016348430303657
 106    0.0011658850988085
 107    -0.0018597712605554
 108    -2.1392657236046e-06
 109    -6.0119622803472e-05
 110    0.00010781844583272
 111    -1.9200379548945e-05
 112    -1.3354193887852e-05
 113    0.00080446848123124
 114    0.0017599377486818
 115    -0.0079323359449393
 116    0.00073905197999612
 117    -0.00046531356025668
 118    0.00093830124976219
 119    -0.0045141423762812
 120    -0.00093314523500928
 121    5.4572292858219e-05
 122    4.7947877865032e-05
 123    -0.00019226184524445
 124    0.00010712745125667
 125    -7.9771418537544e-05
 126    8.0547578244716e-05
 127    -0.0013423018292544
 128     0.013015450604662
 129     0.032145312412183
 130    -0.008097868082282
 131    -0.0082280824081074
 132     0.014754511236644
 133    0.0016982187345215
 134    -0.0026972451819439
 135     0.015034240138746
 136    -0.00081407950800657
 137    -0.00076011363273022
 138    -0.00041734773455069
 139    0.00010522811391022
 140    -0.0011730879254441
 141    -2.9381390749917e-05
 142    -0.0034693860869381
 143    -0.0067837241957943
 144    -0.0021744635009541
 145    -0.0025904658816555
 146    -0.0076544936117499
 147    -0.00098698186830281
 148    -0.00079186601685465
 149    -0.011164816217136
 150    0.00046945600171486
 151    6.5447797135312e-05
 152    -0.00017303654380961
 153    -3.8616590014892e-05
 154    -0.00019652368447486
 155    0.0017680636503892
 156     0.010455341169222
 157    0.00079989385907885
 158    3.1398084158813e-05
 159    -0.0013684182485729
 160    4.1743920685808e-05
 161    -3.8009914234738e-05
 162    7.9239906992934e-05
 163    0.00018678156778778
 164    -7.5154803008898e-05
 165    -0.00034428011381244
 166    0.00056295377814313
 167    0.00013822106830423
 168    3.2753408886111e-05
 169    -0.00038488575823657
 170    -0.00076529322882546
 171    -0.0017924095874892
 172    -7.0963379926456e-05
 173    -0.00010920441905649
 174    0.00027181839117649
 175    -0.0025728516274964
 176    -0.013261547370632
 177      0.02086882798304
 178    0.0088372829113368
 179    7.2587352464466e-05
 180     0.022992269971177
 181    -0.0025978495208043
 182    -0.0043562102110828
 183     0.027012238446735
 184    0.0044698422981952
 185    0.0029297321304723
 186    0.00081114255849974
 187    4.0638115546932e-05
 188    -0.0016128958379223
 189    -0.011403690059948
 190    -0.0059174745673535
 191    -0.00087669827530284
 192    0.0012424116452682
 193    0.00071359956175712
 194    -0.025893628420909
 195    -0.026121116686436
 196    0.0038515959774166
 197    0.0051395145206435
 198    -0.0059715301520625
 199    -0.008795094665886
 200    -0.015513600756174
 201    -0.0015892257645064
 202    0.00084815832497752
 203    -6.1976570228819e-05
 204    0.00069904372647317
 205    -0.00037307740228965
 206    -0.00072634051444237
 207    -9.9837886599285e-05
 208    -2.914209507905e-05
 209    0.0019126594228912
 210    0.00017173669851525
 211    0.00050365938011507
 212    0.00018705534442747
 213    0.00038739491220904
 214    -0.0087567146111491
 215    -0.012775941553375
 216    -0.0010872340968551
 217    -0.00067410774774189
 218    -0.00071376814721269
 219    0.00075150388488469
 220    -0.0089765800721168
 221    -0.00094094743759618
 222    -0.00033746089061982
 223    -0.0009458936746698
 224    0.0027611133446939
 225    -0.0060299548147763
 226    -0.00078353118122239
 227    -0.00056317638345617
 228    -0.001319757554898
