[Molden Format]
made by pyscf v[2.1.0]
[Atoms] (AU)
C   1   6     2.32946917320360    -0.63344186613258     2.37168943427863
C   2   6    -0.29669267073509     0.30039086476086     3.22269546913239
C   3   6    -2.28836574026819    -0.45088865332122     1.27613394164491
C   4   6    -1.50258360260379     0.48150977544368    -1.34195877174189
C   5   6     1.17077037184366    -0.47613539434541    -1.98531603085006
O   6   8     2.90615122545875     0.36947547242271    -0.06380660259594
O   7   8    -1.02480036707776    -0.78170410868758     5.58840958940515
O   8   8    -4.71990091118567     0.61286652808832     1.81907682367207
O   9   8    -3.21856263809797    -0.39246777018029    -3.24986406162526
C   10   6     2.14873576665020     0.54311106765225    -4.52137384344336
O   11   8     0.97527064535291    -0.64120108160005    -6.63217335814292
H   12   1     0.34900595904142    -0.48214283369541     6.76077111064570
H   13   1    -5.19719092819319     0.02690592056156     3.48444332437202
H   14   1    -0.83535721281623    -0.49952075513691    -6.37469817367093
H   15   1    -4.90002393620084     0.08874342853570    -2.71063260170675
O   16   8     4.22615893853768     0.10859122202201     4.07505454789134
H   17   1     4.38166639105427     1.93178575891951     3.94362220620171
H   18   1     2.36505838530753    -2.71537014510103     2.34202262384909
H   19   1    -0.22188597236806     2.38358526023277     3.34538215831753
H   20   1    -2.40897751016855    -2.53158672058258     1.22868291865708
H   21   1    -1.45404220764209     2.56502731408288    -1.31752650267738
H   22   1     1.14953551938192    -2.55944317338479    -2.06041941621865
H   23   1     1.89192576577406     2.61534694132780    -4.54974430175146
H   24   1     4.17463555575142     0.13656105839169    -4.65046670419078
[GTO]
1 0
 s    8 1.00
                  6665  0.00069158396281299
                  1000  0.0053257961529341
                   228   0.027060721042034
                 64.71    0.10165684614077
                 21.06     0.2745748236174
                 7.495    0.44829431892377
                 2.797    0.28490261071525
                0.5215   0.015194859206082
 s    8 1.00
                  6665  -0.00029326965268655
                  1000  -0.0023180354739745
                   228  -0.011499786038565
                 64.71  -0.046826727009787
                 21.06   -0.12846616875047
                 7.495   -0.30126627246289
                 2.797   -0.25563070233011
                0.5215      1.093793361012
 s    1 1.00
                0.1596                   1
 p    3 1.00
                 9.439   0.056979251590039
                 2.002    0.31320721150073
                0.5456    0.76037674173753
 p    1 1.00
                0.1517                   1
 d    1 1.00
                  0.55                   1

2 0
 s    8 1.00
                  6665  0.00069158396281299
                  1000  0.0053257961529341
                   228   0.027060721042034
                 64.71    0.10165684614077
                 21.06     0.2745748236174
                 7.495    0.44829431892377
                 2.797    0.28490261071525
                0.5215   0.015194859206082
 s    8 1.00
                  6665  -0.00029326965268655
                  1000  -0.0023180354739745
                   228  -0.011499786038565
                 64.71  -0.046826727009787
                 21.06   -0.12846616875047
                 7.495   -0.30126627246289
                 2.797   -0.25563070233011
                0.5215      1.093793361012
 s    1 1.00
                0.1596                   1
 p    3 1.00
                 9.439   0.056979251590039
                 2.002    0.31320721150073
                0.5456    0.76037674173753
 p    1 1.00
                0.1517                   1
 d    1 1.00
                  0.55                   1

3 0
 s    8 1.00
                  6665  0.00069158396281299
                  1000  0.0053257961529341
                   228   0.027060721042034
                 64.71    0.10165684614077
                 21.06     0.2745748236174
                 7.495    0.44829431892377
                 2.797    0.28490261071525
                0.5215   0.015194859206082
 s    8 1.00
                  6665  -0.00029326965268655
                  1000  -0.0023180354739745
                   228  -0.011499786038565
                 64.71  -0.046826727009787
                 21.06   -0.12846616875047
                 7.495   -0.30126627246289
                 2.797   -0.25563070233011
                0.5215      1.093793361012
 s    1 1.00
                0.1596                   1
 p    3 1.00
                 9.439   0.056979251590039
                 2.002    0.31320721150073
                0.5456    0.76037674173753
 p    1 1.00
                0.1517                   1
 d    1 1.00
                  0.55                   1

4 0
 s    8 1.00
                  6665  0.00069158396281299
                  1000  0.0053257961529341
                   228   0.027060721042034
                 64.71    0.10165684614077
                 21.06     0.2745748236174
                 7.495    0.44829431892377
                 2.797    0.28490261071525
                0.5215   0.015194859206082
 s    8 1.00
                  6665  -0.00029326965268655
                  1000  -0.0023180354739745
                   228  -0.011499786038565
                 64.71  -0.046826727009787
                 21.06   -0.12846616875047
                 7.495   -0.30126627246289
                 2.797   -0.25563070233011
                0.5215      1.093793361012
 s    1 1.00
                0.1596                   1
 p    3 1.00
                 9.439   0.056979251590039
                 2.002    0.31320721150073
                0.5456    0.76037674173753
 p    1 1.00
                0.1517                   1
 d    1 1.00
                  0.55                   1

5 0
 s    8 1.00
                  6665  0.00069158396281299
                  1000  0.0053257961529341
                   228   0.027060721042034
                 64.71    0.10165684614077
                 21.06     0.2745748236174
                 7.495    0.44829431892377
                 2.797    0.28490261071525
                0.5215   0.015194859206082
 s    8 1.00
                  6665  -0.00029326965268655
                  1000  -0.0023180354739745
                   228  -0.011499786038565
                 64.71  -0.046826727009787
                 21.06   -0.12846616875047
                 7.495   -0.30126627246289
                 2.797   -0.25563070233011
                0.5215      1.093793361012
 s    1 1.00
                0.1596                   1
 p    3 1.00
                 9.439   0.056979251590039
                 2.002    0.31320721150073
                0.5456    0.76037674173753
 p    1 1.00
                0.1517                   1
 d    1 1.00
                  0.55                   1

6 0
 s    8 1.00
                 11720  0.00070964594651845
                  1759  0.0054672722921914
                 400.8   0.027823118610189
                 113.7    0.10474773971146
                 37.03    0.28292084635691
                 13.27    0.44849523869833
                 5.025    0.27081688521277
                 1.013    0.01545029160744
 s    8 1.00
                 11720  -0.00031444341168873
                  1759  -0.0024821376810179
                 400.8  -0.012316355381583
                 113.7  -0.050538917343672
                 37.03   -0.13938490331632
                 13.27   -0.32507749481778
                 5.025   -0.22984830758785
                 1.013     1.0953793467883
 s    1 1.00
                0.3023                   1
 p    3 1.00
                  17.7   0.062679166281506
                 3.854    0.33353656587936
                 1.046    0.74123964163973
 p    1 1.00
                0.2753                   1
 d    1 1.00
                 1.185                   1

7 0
 s    8 1.00
                 11720  0.00070964594651845
                  1759  0.0054672722921914
                 400.8   0.027823118610189
                 113.7    0.10474773971146
                 37.03    0.28292084635691
                 13.27    0.44849523869833
                 5.025    0.27081688521277
                 1.013    0.01545029160744
 s    8 1.00
                 11720  -0.00031444341168873
                  1759  -0.0024821376810179
                 400.8  -0.012316355381583
                 113.7  -0.050538917343672
                 37.03   -0.13938490331632
                 13.27   -0.32507749481778
                 5.025   -0.22984830758785
                 1.013     1.0953793467883
 s    1 1.00
                0.3023                   1
 p    3 1.00
                  17.7   0.062679166281506
                 3.854    0.33353656587936
                 1.046    0.74123964163973
 p    1 1.00
                0.2753                   1
 d    1 1.00
                 1.185                   1

8 0
 s    8 1.00
                 11720  0.00070964594651845
                  1759  0.0054672722921914
                 400.8   0.027823118610189
                 113.7    0.10474773971146
                 37.03    0.28292084635691
                 13.27    0.44849523869833
                 5.025    0.27081688521277
                 1.013    0.01545029160744
 s    8 1.00
                 11720  -0.00031444341168873
                  1759  -0.0024821376810179
                 400.8  -0.012316355381583
                 113.7  -0.050538917343672
                 37.03   -0.13938490331632
                 13.27   -0.32507749481778
                 5.025   -0.22984830758785
                 1.013     1.0953793467883
 s    1 1.00
                0.3023                   1
 p    3 1.00
                  17.7   0.062679166281506
                 3.854    0.33353656587936
                 1.046    0.74123964163973
 p    1 1.00
                0.2753                   1
 d    1 1.00
                 1.185                   1

9 0
 s    8 1.00
                 11720  0.00070964594651845
                  1759  0.0054672722921914
                 400.8   0.027823118610189
                 113.7    0.10474773971146
                 37.03    0.28292084635691
                 13.27    0.44849523869833
                 5.025    0.27081688521277
                 1.013    0.01545029160744
 s    8 1.00
                 11720  -0.00031444341168873
                  1759  -0.0024821376810179
                 400.8  -0.012316355381583
                 113.7  -0.050538917343672
                 37.03   -0.13938490331632
                 13.27   -0.32507749481778
                 5.025   -0.22984830758785
                 1.013     1.0953793467883
 s    1 1.00
                0.3023                   1
 p    3 1.00
                  17.7   0.062679166281506
                 3.854    0.33353656587936
                 1.046    0.74123964163973
 p    1 1.00
                0.2753                   1
 d    1 1.00
                 1.185                   1

10 0
 s    8 1.00
                  6665  0.00069158396281299
                  1000  0.0053257961529341
                   228   0.027060721042034
                 64.71    0.10165684614077
                 21.06     0.2745748236174
                 7.495    0.44829431892377
                 2.797    0.28490261071525
                0.5215   0.015194859206082
 s    8 1.00
                  6665  -0.00029326965268655
                  1000  -0.0023180354739745
                   228  -0.011499786038565
                 64.71  -0.046826727009787
                 21.06   -0.12846616875047
                 7.495   -0.30126627246289
                 2.797   -0.25563070233011
                0.5215      1.093793361012
 s    1 1.00
                0.1596                   1
 p    3 1.00
                 9.439   0.056979251590039
                 2.002    0.31320721150073
                0.5456    0.76037674173753
 p    1 1.00
                0.1517                   1
 d    1 1.00
                  0.55                   1

11 0
 s    8 1.00
                 11720  0.00070964594651845
                  1759  0.0054672722921914
                 400.8   0.027823118610189
                 113.7    0.10474773971146
                 37.03    0.28292084635691
                 13.27    0.44849523869833
                 5.025    0.27081688521277
                 1.013    0.01545029160744
 s    8 1.00
                 11720  -0.00031444341168873
                  1759  -0.0024821376810179
                 400.8  -0.012316355381583
                 113.7  -0.050538917343672
                 37.03   -0.13938490331632
                 13.27   -0.32507749481778
                 5.025   -0.22984830758785
                 1.013     1.0953793467883
 s    1 1.00
                0.3023                   1
 p    3 1.00
                  17.7   0.062679166281506
                 3.854    0.33353656587936
                 1.046    0.74123964163973
 p    1 1.00
                0.2753                   1
 d    1 1.00
                 1.185                   1

12 0
 s    3 1.00
                 13.01   0.033498726389998
                 1.962    0.23480080117413
                0.4446     0.8136829578829
 s    1 1.00
                 0.122                   1
 p    1 1.00
                 0.727                   1

13 0
 s    3 1.00
                 13.01   0.033498726389998
                 1.962    0.23480080117413
                0.4446     0.8136829578829
 s    1 1.00
                 0.122                   1
 p    1 1.00
                 0.727                   1

14 0
 s    3 1.00
                 13.01   0.033498726389998
                 1.962    0.23480080117413
                0.4446     0.8136829578829
 s    1 1.00
                 0.122                   1
 p    1 1.00
                 0.727                   1

15 0
 s    3 1.00
                 13.01   0.033498726389998
                 1.962    0.23480080117413
                0.4446     0.8136829578829
 s    1 1.00
                 0.122                   1
 p    1 1.00
                 0.727                   1

16 0
 s    8 1.00
                 11720  0.00070964594651845
                  1759  0.0054672722921914
                 400.8   0.027823118610189
                 113.7    0.10474773971146
                 37.03    0.28292084635691
                 13.27    0.44849523869833
                 5.025    0.27081688521277
                 1.013    0.01545029160744
 s    8 1.00
                 11720  -0.00031444341168873
                  1759  -0.0024821376810179
                 400.8  -0.012316355381583
                 113.7  -0.050538917343672
                 37.03   -0.13938490331632
                 13.27   -0.32507749481778
                 5.025   -0.22984830758785
                 1.013     1.0953793467883
 s    1 1.00
                0.3023                   1
 p    3 1.00
                  17.7   0.062679166281506
                 3.854    0.33353656587936
                 1.046    0.74123964163973
 p    1 1.00
                0.2753                   1
 d    1 1.00
                 1.185                   1

17 0
 s    3 1.00
                 13.01   0.033498726389998
                 1.962    0.23480080117413
                0.4446     0.8136829578829
 s    1 1.00
                 0.122                   1
 p    1 1.00
                 0.727                   1

18 0
 s    3 1.00
                 13.01   0.033498726389998
                 1.962    0.23480080117413
                0.4446     0.8136829578829
 s    1 1.00
                 0.122                   1
 p    1 1.00
                 0.727                   1

19 0
 s    3 1.00
                 13.01   0.033498726389998
                 1.962    0.23480080117413
                0.4446     0.8136829578829
 s    1 1.00
                 0.122                   1
 p    1 1.00
                 0.727                   1

20 0
 s    3 1.00
                 13.01   0.033498726389998
                 1.962    0.23480080117413
                0.4446     0.8136829578829
 s    1 1.00
                 0.122                   1
 p    1 1.00
                 0.727                   1

21 0
 s    3 1.00
                 13.01   0.033498726389998
                 1.962    0.23480080117413
                0.4446     0.8136829578829
 s    1 1.00
                 0.122                   1
 p    1 1.00
                 0.727                   1

22 0
 s    3 1.00
                 13.01   0.033498726389998
                 1.962    0.23480080117413
                0.4446     0.8136829578829
 s    1 1.00
                 0.122                   1
 p    1 1.00
                 0.727                   1

23 0
 s    3 1.00
                 13.01   0.033498726389998
                 1.962    0.23480080117413
                0.4446     0.8136829578829
 s    1 1.00
                 0.122                   1
 p    1 1.00
                 0.727                   1

24 0
 s    3 1.00
                 13.01   0.033498726389998
                 1.962    0.23480080117413
                0.4446     0.8136829578829
 s    1 1.00
                 0.122                   1
 p    1 1.00
                 0.727                   1

[5d]
[7f]
[9g]

[MO]
 Sym= A
 Ene=     -20.5892274
 Spin= Alpha
 Occup=    2.00000
   1    1.6222105377112e-05
   2    -6.1571779976602e-06
   3    0.0053094801396737
   4    -0.0028198035251309
   5    -0.00022113705644601
   6    -0.00030796005658652
   7    -0.0071072291691614
   8    0.00054275027011351
   9    0.0015577859875592
  10    -0.00023463676001281
  11    0.0013099587055061
  12    9.3449441059047e-05
  13    0.00035171425698431
  14    -0.00059793272160852
  15    0.0023725182452477
  16     0.013878533822779
  17    0.0038900093334377
  18    -0.014311491746218
  19    -0.0044086035316904
  20    -0.011219480482529
  21    -0.010567236225497
  22     0.002661333143101
  23    -0.003507201449202
  24     -0.00131087365583
  25    -0.00017920780151862
  26    0.00047332454045839
  27    -6.7161202572049e-05
  28    -0.00033481446800961
  29    0.00069372063718483
  30    -0.013680679597473
  31    -0.0021327993904268
  32    -0.0076259519601893
  33    -0.005764421998071
  34     0.025046575151697
  35    0.0015543654305822
  36    -0.0081204592871391
  37     0.020885949164884
  38    0.0097587974308995
  39    0.0050845969307426
  40    0.0023718057512374
  41    -1.9649130019837e-05
  42    -0.0033816683423165
  43    -0.003930623429606
  44      0.15835747188819
  45     0.030248058587385
  46     -0.20643990952103
  47     -0.10450239059878
  48     -0.22058473851296
  49    -0.084106744045322
  50    -0.021455206513461
  51    -0.058652771201156
  52     0.012164883198877
  53     0.039897524986885
  54     0.020982470131022
  55     0.016766027250961
  56     0.018891188696019
  57    0.00068132674178247
  58    -0.017711124079068
  59    0.0036144516867948
  60     0.016055129907793
  61    -0.010014755440734
  62    -0.0091228404968168
  63    0.0043573062595007
  64    -0.00072258341284071
  65    0.0042943635772288
  66    -0.0046111462370205
  67    0.0058255145392317
  68    -0.0028475084767064
  69    0.0072725943593207
  70    0.0017168404331903
  71    0.00033421019765958
  72    0.0057571920968471
  73     0.011253873850121
  74    -0.014804114837081
  75    -0.0028675837596891
  76    -0.0092951963877135
  77    -0.014795830178351
  78    0.00069078105597583
  79    -0.004354870512311
  80    7.6342695009428e-05
  81    -0.0003422095230949
  82    -1.6303862572378e-05
  83    -0.00021198571390815
  84    0.00031046138162485
  85    0.00024467592042794
  86    -0.0022524322805274
  87    -0.0080493816792743
  88    -3.5335702418281e-05
  89    -0.0017401842445848
  90    0.0055062610420499
  91    0.00063594319085098
  92    -0.002266169712587
  93    0.0053438415206355
  94    0.00047929313691938
  95    0.00060834466651237
  96    0.00012319183051796
  97    6.8654346543642e-05
  98    -0.00020530930266823
  99    -0.00031194758421356
 100    -0.0020625951205826
 101    -0.00015789863285897
 102    -0.004276627950965
 103    0.0020461379452866
 104    0.0023379895448925
 105    -0.004311483753215
 106     0.002815334378069
 107    -0.0032155920623401
 108    0.00029213262445074
 109    0.00057959310984178
 110    6.9825769682504e-05
 111    -0.00020660725302514
 112    -0.00014998961966333
 113    -0.0076685506182791
 114      0.20714173930911
 115      0.19895321494561
 116      0.27324703301021
 117      0.13930821373487
 118      0.29572926327588
 119       0.1670969385132
 120     0.096121866910028
 121      0.19808628970829
 122     0.010457541690153
 123      0.01494356643768
 124     0.011797708730231
 125    -6.6678950292743e-05
 126    0.0079175432798884
 127    -0.00074724423004697
 128    -0.003387585756749
 129    0.0074387582974319
 130    0.0047092442594364
 131     0.001656047310163
 132    -0.003487946742841
 133    -0.0022869179493894
 134     8.75163303884e-05
 135    -0.0012307233745766
 136    -0.0012957421051272
 137    0.00075610611887833
 138    -0.00049321433127264
 139    -0.00014976692366511
 140    0.00013902893464164
 141    -0.0004778629085304
 142    -0.00095914971079949
 143    0.0059056585846903
 144    -0.0010207552795906
 145    -0.00088303820285485
 146    -6.7351661903367e-05
 147    -0.0043374914879789
 148    -0.0016747149766738
 149    -0.0024399941070188
 150    -6.2989613341526e-05
 151    -0.0002039630402566
 152    -3.4185940358394e-05
 153    -4.771386862834e-05
 154    5.1078023149639e-05
 155    0.0041987510325297
 156    0.0025834130883454
 157    -0.00034904926384688
 158    -0.00023973016468498
 159    0.00052489536824612
 160    0.0013843941387225
 161    -0.0010352013935283
 162    0.00036015109746789
 163    0.0004092266499826
 164    -0.00043252681680871
 165    -0.0033685773841677
 166    -0.017332811993801
 167    0.00043938333751382
 168    0.00035311807436448
 169    -0.000887104656472
 170     -0.04798522530301
 171    -0.043820502049156
 172    0.0065140905605962
 173    0.0054200082649565
 174     0.010903597231601
 175    8.3089977868231e-05
 176    0.00090696441614536
 177    0.0024861022941371
 178    -0.00092451339189086
 179    0.00027361528896553
 180    -0.0019841616091634
 181    -8.753882404598e-05
 182    8.5165111670264e-05
 183    -0.0020272086909035
 184    -2.4681230037529e-05
 185    7.9974550473247e-06
 186    -6.3286401736731e-05
 187    -5.9501973116142e-05
 188    -3.1589293060954e-05
 189    0.0007152630832239
 190    -0.001559382517755
 191    -0.00010809793051882
 192    -1.6545788352664e-05
 193    -3.7129794117853e-05
 194    -0.00075936979288963
 195    0.0010472888933886
 196    -2.7920730989009e-05
 197    6.2211237466619e-05
 198    -9.939937074173e-07
 199    0.0013274073183824
 200    -0.0015649068336275
 201    -0.00031238426325326
 202    -0.00038526353695336
 203    -0.0010167507870223
 204    -0.010696860448374
 205    -0.014318424992982
 206    -0.00083348784393909
 207    -0.0007529274674213
 208    0.00068930104445863
 209    -0.021247156694679
 210    -0.024742809354253
 211    -0.0040703310891709
 212    -0.0048575143483093
 213    -0.0055332882987078
 214    -0.0060700472543089
 215    -0.0045643394242906
 216    0.00043599054766002
 217    -0.00073156136767196
 218    -0.0011279871563705
 219    -0.00075567593420172
 220    0.0030504235816681
 221    0.00015602892604373
 222    0.00028948514188777
 223    -0.00019688818511378
 224    0.0017085410860373
 225    -3.4604676499272e-05
 226    4.6487041337605e-05
 227    4.4728949525887e-05
 228    2.5694699297211e-05
