[Molden Format]
made by pyscf v[2.1.0]
[Atoms] (AU)
C   1   6     2.32946917320360    -0.63344186613258     2.37168943427863
C   2   6    -0.29669267073509     0.30039086476086     3.22269546913239
C   3   6    -2.28836574026819    -0.45088865332122     1.27613394164491
C   4   6    -1.50258360260379     0.48150977544368    -1.34195877174189
C   5   6     1.17077037184366    -0.47613539434541    -1.98531603085006
O   6   8     2.90615122545875     0.36947547242271    -0.06380660259594
O   7   8    -1.02480036707776    -0.78170410868758     5.58840958940515
O   8   8    -4.71990091118567     0.61286652808832     1.81907682367207
O   9   8    -3.21856263809797    -0.39246777018029    -3.24986406162526
C   10   6     2.14873576665020     0.54311106765225    -4.52137384344336
O   11   8     0.97527064535291    -0.64120108160005    -6.63217335814292
H   12   1     0.34900595904142    -0.48214283369541     6.76077111064570
H   13   1    -5.19719092819319     0.02690592056156     3.48444332437202
H   14   1    -0.83535721281623    -0.49952075513691    -6.37469817367093
H   15   1    -4.90002393620084     0.08874342853570    -2.71063260170675
O   16   8     4.22615893853768     0.10859122202201     4.07505454789134
H   17   1     4.38166639105427     1.93178575891951     3.94362220620171
H   18   1     2.36505838530753    -2.71537014510103     2.34202262384909
H   19   1    -0.22188597236806     2.38358526023277     3.34538215831753
H   20   1    -2.40897751016855    -2.53158672058258     1.22868291865708
H   21   1    -1.45404220764209     2.56502731408288    -1.31752650267738
H   22   1     1.14953551938192    -2.55944317338479    -2.06041941621865
H   23   1     1.89192576577406     2.61534694132780    -4.54974430175146
H   24   1     4.17463555575142     0.13656105839169    -4.65046670419078
[GTO]
1 0
 s    8 1.00
                  6665  0.00069158396281299
                  1000  0.0053257961529341
                   228   0.027060721042034
                 64.71    0.10165684614077
                 21.06     0.2745748236174
                 7.495    0.44829431892377
                 2.797    0.28490261071525
                0.5215   0.015194859206082
 s    8 1.00
                  6665  -0.00029326965268655
                  1000  -0.0023180354739745
                   228  -0.011499786038565
                 64.71  -0.046826727009787
                 21.06   -0.12846616875047
                 7.495   -0.30126627246289
                 2.797   -0.25563070233011
                0.5215      1.093793361012
 s    1 1.00
                0.1596                   1
 p    3 1.00
                 9.439   0.056979251590039
                 2.002    0.31320721150073
                0.5456    0.76037674173753
 p    1 1.00
                0.1517                   1
 d    1 1.00
                  0.55                   1

2 0
 s    8 1.00
                  6665  0.00069158396281299
                  1000  0.0053257961529341
                   228   0.027060721042034
                 64.71    0.10165684614077
                 21.06     0.2745748236174
                 7.495    0.44829431892377
                 2.797    0.28490261071525
                0.5215   0.015194859206082
 s    8 1.00
                  6665  -0.00029326965268655
                  1000  -0.0023180354739745
                   228  -0.011499786038565
                 64.71  -0.046826727009787
                 21.06   -0.12846616875047
                 7.495   -0.30126627246289
                 2.797   -0.25563070233011
                0.5215      1.093793361012
 s    1 1.00
                0.1596                   1
 p    3 1.00
                 9.439   0.056979251590039
                 2.002    0.31320721150073
                0.5456    0.76037674173753
 p    1 1.00
                0.1517                   1
 d    1 1.00
                  0.55                   1

3 0
 s    8 1.00
                  6665  0.00069158396281299
                  1000  0.0053257961529341
                   228   0.027060721042034
                 64.71    0.10165684614077
                 21.06     0.2745748236174
                 7.495    0.44829431892377
                 2.797    0.28490261071525
                0.5215   0.015194859206082
 s    8 1.00
                  6665  -0.00029326965268655
                  1000  -0.0023180354739745
                   228  -0.011499786038565
                 64.71  -0.046826727009787
                 21.06   -0.12846616875047
                 7.495   -0.30126627246289
                 2.797   -0.25563070233011
                0.5215      1.093793361012
 s    1 1.00
                0.1596                   1
 p    3 1.00
                 9.439   0.056979251590039
                 2.002    0.31320721150073
                0.5456    0.76037674173753
 p    1 1.00
                0.1517                   1
 d    1 1.00
                  0.55                   1

4 0
 s    8 1.00
                  6665  0.00069158396281299
                  1000  0.0053257961529341
                   228   0.027060721042034
                 64.71    0.10165684614077
                 21.06     0.2745748236174
                 7.495    0.44829431892377
                 2.797    0.28490261071525
                0.5215   0.015194859206082
 s    8 1.00
                  6665  -0.00029326965268655
                  1000  -0.0023180354739745
                   228  -0.011499786038565
                 64.71  -0.046826727009787
                 21.06   -0.12846616875047
                 7.495   -0.30126627246289
                 2.797   -0.25563070233011
                0.5215      1.093793361012
 s    1 1.00
                0.1596                   1
 p    3 1.00
                 9.439   0.056979251590039
                 2.002    0.31320721150073
                0.5456    0.76037674173753
 p    1 1.00
                0.1517                   1
 d    1 1.00
                  0.55                   1

5 0
 s    8 1.00
                  6665  0.00069158396281299
                  1000  0.0053257961529341
                   228   0.027060721042034
                 64.71    0.10165684614077
                 21.06     0.2745748236174
                 7.495    0.44829431892377
                 2.797    0.28490261071525
                0.5215   0.015194859206082
 s    8 1.00
                  6665  -0.00029326965268655
                  1000  -0.0023180354739745
                   228  -0.011499786038565
                 64.71  -0.046826727009787
                 21.06   -0.12846616875047
                 7.495   -0.30126627246289
                 2.797   -0.25563070233011
                0.5215      1.093793361012
 s    1 1.00
                0.1596                   1
 p    3 1.00
                 9.439   0.056979251590039
                 2.002    0.31320721150073
                0.5456    0.76037674173753
 p    1 1.00
                0.1517                   1
 d    1 1.00
                  0.55                   1

6 0
 s    8 1.00
                 11720  0.00070964594651845
                  1759  0.0054672722921914
                 400.8   0.027823118610189
                 113.7    0.10474773971146
                 37.03    0.28292084635691
                 13.27    0.44849523869833
                 5.025    0.27081688521277
                 1.013    0.01545029160744
 s    8 1.00
                 11720  -0.00031444341168873
                  1759  -0.0024821376810179
                 400.8  -0.012316355381583
                 113.7  -0.050538917343672
                 37.03   -0.13938490331632
                 13.27   -0.32507749481778
                 5.025   -0.22984830758785
                 1.013     1.0953793467883
 s    1 1.00
                0.3023                   1
 p    3 1.00
                  17.7   0.062679166281506
                 3.854    0.33353656587936
                 1.046    0.74123964163973
 p    1 1.00
                0.2753                   1
 d    1 1.00
                 1.185                   1

7 0
 s    8 1.00
                 11720  0.00070964594651845
                  1759  0.0054672722921914
                 400.8   0.027823118610189
                 113.7    0.10474773971146
                 37.03    0.28292084635691
                 13.27    0.44849523869833
                 5.025    0.27081688521277
                 1.013    0.01545029160744
 s    8 1.00
                 11720  -0.00031444341168873
                  1759  -0.0024821376810179
                 400.8  -0.012316355381583
                 113.7  -0.050538917343672
                 37.03   -0.13938490331632
                 13.27   -0.32507749481778
                 5.025   -0.22984830758785
                 1.013     1.0953793467883
 s    1 1.00
                0.3023                   1
 p    3 1.00
                  17.7   0.062679166281506
                 3.854    0.33353656587936
                 1.046    0.74123964163973
 p    1 1.00
                0.2753                   1
 d    1 1.00
                 1.185                   1

8 0
 s    8 1.00
                 11720  0.00070964594651845
                  1759  0.0054672722921914
                 400.8   0.027823118610189
                 113.7    0.10474773971146
                 37.03    0.28292084635691
                 13.27    0.44849523869833
                 5.025    0.27081688521277
                 1.013    0.01545029160744
 s    8 1.00
                 11720  -0.00031444341168873
                  1759  -0.0024821376810179
                 400.8  -0.012316355381583
                 113.7  -0.050538917343672
                 37.03   -0.13938490331632
                 13.27   -0.32507749481778
                 5.025   -0.22984830758785
                 1.013     1.0953793467883
 s    1 1.00
                0.3023                   1
 p    3 1.00
                  17.7   0.062679166281506
                 3.854    0.33353656587936
                 1.046    0.74123964163973
 p    1 1.00
                0.2753                   1
 d    1 1.00
                 1.185                   1

9 0
 s    8 1.00
                 11720  0.00070964594651845
                  1759  0.0054672722921914
                 400.8   0.027823118610189
                 113.7    0.10474773971146
                 37.03    0.28292084635691
                 13.27    0.44849523869833
                 5.025    0.27081688521277
                 1.013    0.01545029160744
 s    8 1.00
                 11720  -0.00031444341168873
                  1759  -0.0024821376810179
                 400.8  -0.012316355381583
                 113.7  -0.050538917343672
                 37.03   -0.13938490331632
                 13.27   -0.32507749481778
                 5.025   -0.22984830758785
                 1.013     1.0953793467883
 s    1 1.00
                0.3023                   1
 p    3 1.00
                  17.7   0.062679166281506
                 3.854    0.33353656587936
                 1.046    0.74123964163973
 p    1 1.00
                0.2753                   1
 d    1 1.00
                 1.185                   1

10 0
 s    8 1.00
                  6665  0.00069158396281299
                  1000  0.0053257961529341
                   228   0.027060721042034
                 64.71    0.10165684614077
                 21.06     0.2745748236174
                 7.495    0.44829431892377
                 2.797    0.28490261071525
                0.5215   0.015194859206082
 s    8 1.00
                  6665  -0.00029326965268655
                  1000  -0.0023180354739745
                   228  -0.011499786038565
                 64.71  -0.046826727009787
                 21.06   -0.12846616875047
                 7.495   -0.30126627246289
                 2.797   -0.25563070233011
                0.5215      1.093793361012
 s    1 1.00
                0.1596                   1
 p    3 1.00
                 9.439   0.056979251590039
                 2.002    0.31320721150073
                0.5456    0.76037674173753
 p    1 1.00
                0.1517                   1
 d    1 1.00
                  0.55                   1

11 0
 s    8 1.00
                 11720  0.00070964594651845
                  1759  0.0054672722921914
                 400.8   0.027823118610189
                 113.7    0.10474773971146
                 37.03    0.28292084635691
                 13.27    0.44849523869833
                 5.025    0.27081688521277
                 1.013    0.01545029160744
 s    8 1.00
                 11720  -0.00031444341168873
                  1759  -0.0024821376810179
                 400.8  -0.012316355381583
                 113.7  -0.050538917343672
                 37.03   -0.13938490331632
                 13.27   -0.32507749481778
                 5.025   -0.22984830758785
                 1.013     1.0953793467883
 s    1 1.00
                0.3023                   1
 p    3 1.00
                  17.7   0.062679166281506
                 3.854    0.33353656587936
                 1.046    0.74123964163973
 p    1 1.00
                0.2753                   1
 d    1 1.00
                 1.185                   1

12 0
 s    3 1.00
                 13.01   0.033498726389998
                 1.962    0.23480080117413
                0.4446     0.8136829578829
 s    1 1.00
                 0.122                   1
 p    1 1.00
                 0.727                   1

13 0
 s    3 1.00
                 13.01   0.033498726389998
                 1.962    0.23480080117413
                0.4446     0.8136829578829
 s    1 1.00
                 0.122                   1
 p    1 1.00
                 0.727                   1

14 0
 s    3 1.00
                 13.01   0.033498726389998
                 1.962    0.23480080117413
                0.4446     0.8136829578829
 s    1 1.00
                 0.122                   1
 p    1 1.00
                 0.727                   1

15 0
 s    3 1.00
                 13.01   0.033498726389998
                 1.962    0.23480080117413
                0.4446     0.8136829578829
 s    1 1.00
                 0.122                   1
 p    1 1.00
                 0.727                   1

16 0
 s    8 1.00
                 11720  0.00070964594651845
                  1759  0.0054672722921914
                 400.8   0.027823118610189
                 113.7    0.10474773971146
                 37.03    0.28292084635691
                 13.27    0.44849523869833
                 5.025    0.27081688521277
                 1.013    0.01545029160744
 s    8 1.00
                 11720  -0.00031444341168873
                  1759  -0.0024821376810179
                 400.8  -0.012316355381583
                 113.7  -0.050538917343672
                 37.03   -0.13938490331632
                 13.27   -0.32507749481778
                 5.025   -0.22984830758785
                 1.013     1.0953793467883
 s    1 1.00
                0.3023                   1
 p    3 1.00
                  17.7   0.062679166281506
                 3.854    0.33353656587936
                 1.046    0.74123964163973
 p    1 1.00
                0.2753                   1
 d    1 1.00
                 1.185                   1

17 0
 s    3 1.00
                 13.01   0.033498726389998
                 1.962    0.23480080117413
                0.4446     0.8136829578829
 s    1 1.00
                 0.122                   1
 p    1 1.00
                 0.727                   1

18 0
 s    3 1.00
                 13.01   0.033498726389998
                 1.962    0.23480080117413
                0.4446     0.8136829578829
 s    1 1.00
                 0.122                   1
 p    1 1.00
                 0.727                   1

19 0
 s    3 1.00
                 13.01   0.033498726389998
                 1.962    0.23480080117413
                0.4446     0.8136829578829
 s    1 1.00
                 0.122                   1
 p    1 1.00
                 0.727                   1

20 0
 s    3 1.00
                 13.01   0.033498726389998
                 1.962    0.23480080117413
                0.4446     0.8136829578829
 s    1 1.00
                 0.122                   1
 p    1 1.00
                 0.727                   1

21 0
 s    3 1.00
                 13.01   0.033498726389998
                 1.962    0.23480080117413
                0.4446     0.8136829578829
 s    1 1.00
                 0.122                   1
 p    1 1.00
                 0.727                   1

22 0
 s    3 1.00
                 13.01   0.033498726389998
                 1.962    0.23480080117413
                0.4446     0.8136829578829
 s    1 1.00
                 0.122                   1
 p    1 1.00
                 0.727                   1

23 0
 s    3 1.00
                 13.01   0.033498726389998
                 1.962    0.23480080117413
                0.4446     0.8136829578829
 s    1 1.00
                 0.122                   1
 p    1 1.00
                 0.727                   1

24 0
 s    3 1.00
                 13.01   0.033498726389998
                 1.962    0.23480080117413
                0.4446     0.8136829578829
 s    1 1.00
                 0.122                   1
 p    1 1.00
                 0.727                   1

[5d]
[7f]
[9g]

[MO]
 Sym= A
 Ene=     -20.5892274
 Spin= Alpha
 Occup=    2.00000
   1    -0.0021286882152518
   2      0.17446054886698
   3     0.031313430752599
   4      0.23921602279692
   5      0.11225200831498
   6        0.199637571363
   7     0.047830910369897
   8     0.044488276786027
   9     0.045435778131035
  10    0.0045985992524904
  11     0.041936681468728
  12     0.020624144764831
  13     0.019193185897942
  14     0.021951237034491
  15      0.00103255948811
  16    -0.014311346418811
  17    -0.019235249075402
  18    -0.026820177844782
  19    0.0069831383709695
  20    0.0071250675120248
  21    -0.015837054112667
  22    0.0025374164079605
  23    0.0073045883818761
  24    -0.0046133768856467
  25    0.0039666105066094
  26    -0.0037849893927549
  27     0.008289278859492
  28     0.001971265091523
  29    0.0014009142972386
  30     0.011510570657035
  31     0.012805147921061
  32     0.009762280274705
  33    0.0043703852727333
  34     0.013338557136142
  35    0.00037625020900191
  36    0.0032289805255033
  37     0.013090191156533
  38    0.00035034923189592
  39    2.6823537107817e-05
  40    -0.0001747158462596
  41    -0.00082485625072282
  42    0.00043331435212846
  43    -0.0013546872996247
  44    -0.0029913197129625
  45      0.02106127679244
  46    0.00065772812425608
  47    -1.6023466690186e-05
  48    0.0020369610609544
  49    0.0066557079560825
  50    -0.008145923330156
  51    0.0053821861402938
  52    6.8299335757471e-05
  53    0.0019315946621702
  54    -0.00037120850858997
  55    0.00084791625538827
  56    -0.00033748917237978
  57    0.0026333605196291
  58     0.013645553603338
  59    0.0035355844357964
  60     0.012903390952376
  61    0.0047966158047731
  62     0.016500968665554
  63     0.016618641109471
  64    0.0025251081235532
  65    -0.011077952907102
  66    -0.0024627437940715
  67    -2.5822695914842e-05
  68    0.0011317630233838
  69    -0.00020539772919477
  70     0.001648842019969
  71    -0.0011625006775083
  72    -0.012352328371486
  73    -0.0074072961516732
  74    -0.0013846347889175
  75    0.0049726756454319
  76    -0.020364963956997
  77    -0.010561728568548
  78    -0.0047135579711305
  79    -0.012341026103816
  80    0.0053003998364575
  81    0.0034180550134291
  82    0.00023379322976806
  83    7.6412289189718e-05
  84    -0.0012861110892468
  85    -0.00013692994594978
  86    -0.0016410737972098
  87    0.00060477597095799
  88    -0.0017770528712545
  89    -0.0015322283192439
  90    0.00043492489330311
  91    0.0027043439566553
  92    -0.0026429103035578
  93    0.0015713798394855
  94    -0.00010228425184643
  95    0.00094007845181323
  96    -0.00018422288770732
  97    0.00014112923913469
  98    -4.5477373900738e-05
  99    0.00026520192777716
 100    -0.0016308486876774
 101    -0.0069723775050435
 102    -0.0061003495528374
 103    0.0013733480479436
 104    -0.0010423951562271
 105    -0.0084552312022029
 106    0.0019158569068044
 107    -0.001248753695883
 108    -0.00013834463712837
 109    0.00031264196610248
 110    -7.6045026612029e-05
 111    0.00022695244811638
 112    0.00018576237166586
 113    0.00038952518138935
 114    0.0013853701057828
 115    -0.00030097489197589
 116    0.0013551437565681
 117    0.00023105797073032
 118    0.0012930375312668
 119    -0.00015559873509873
 120    0.0010448284591473
 121    -0.00050045935837294
 122    -4.2988727727535e-05
 123    -0.00011835298244207
 124    -5.2312211246945e-05
 125    -0.0001319943385021
 126    -3.7749702982404e-05
 127    0.00047305922631725
 128    -0.0024558801391835
 129    -0.017066195992633
 130    0.0023304903179652
 131    0.0023473998753388
 132    -0.0045339325058069
 133    0.0046538186127933
 134    0.0087468819773665
 135    -0.007237298772547
 136    0.00030971054855233
 137    0.00060750218624455
 138    0.00041734815069076
 139    -0.00011681271923338
 140    -0.00019275618581449
 141    -0.00018421251729481
 142    0.00047152819904153
 143    0.0040476482276655
 144    0.00021783236036685
 145    0.0003130054818077
 146    0.0026625367657889
 147    0.0010080856966314
 148    -7.9833466469627e-05
 149     0.003681933709313
 150    -0.00010884262934587
 151    3.127794975688e-05
 152    5.3994945669059e-05
 153    3.5914953176889e-07
 154    3.8974445424488e-05
 155    0.0014860436494708
 156    -0.0065355056164421
 157    0.0010042896120071
 158    -0.00011109086692761
 159    0.00082597131253491
 160    -0.00097012229677328
 161    -0.002335049120179
 162    -0.00031422480269903
 163    -1.4527238002632e-05
 164    -9.8618974650858e-05
 165    0.00073817755843931
 166    -0.00032044959416097
 167    2.396898126147e-05
 168    7.8158907927629e-05
 169    8.4171690435025e-05
 170    -0.00051187584019928
 171    0.00024932265727451
 172    0.00016954197881452
 173    0.00011334547083775
 174    0.00039504636187477
 175    -0.0081767541615329
 176      0.21560721020991
 177      0.21017101092373
 178     -0.29915711631097
 179     -0.12127070522661
 180     -0.26829829689615
 181     -0.18977400039851
 182     -0.06129653258349
 183     -0.17034488909004
 184     0.005268268963896
 185     0.019859402795771
 186    0.0018689664794853
 187     0.012952249828817
 188    0.0016378460477722
 189    -0.049652066124754
 190    -0.048165682535757
 191    -0.0099267477056836
 192    -0.0016096363663359
 193    -0.0097198811522579
 194     -0.01703833098031
 195     -0.01752515453241
 196    0.0055780089431065
 197    0.0044886691286504
 198    0.0032289643978909
 199    -0.010301490215106
 200    -0.0053792134740601
 201    -0.0010261245825058
 202    0.0004001037796808
 203    0.00045700338521163
 204    0.0010857003352498
 205    -0.0009769767436008
 206    0.00091995916265278
 207    0.00021823886580749
 208    0.00027636691238968
 209    -0.0016589079623278
 210    0.0018335149220726
 211    -5.302421344467e-05
 212    -5.3774889452993e-05
 213    1.591469783881e-05
 214    0.0018010413665606
 215     0.002896590167427
 216    0.00027139205002265
 217    0.0001966097597325
 218    0.0020319709188115
 219    9.5395892541109e-05
 220    -0.0016012982717081
 221    -9.7732629323782e-05
 222    0.00010807629453125
 223    -0.00017309462750381
 224    -0.00058117285127358
 225    -0.002845939701262
 226    0.00015120964274853
 227    -0.00027337217078612
 228    -0.00032254861356278
