[Molden Format]
made by pyscf v[2.1.0]
[Atoms] (AU)
C   1   6     2.32946917320360    -0.63344186613258     2.37168943427863
C   2   6    -0.29669267073509     0.30039086476086     3.22269546913239
C   3   6    -2.28836574026819    -0.45088865332122     1.27613394164491
C   4   6    -1.50258360260379     0.48150977544368    -1.34195877174189
C   5   6     1.17077037184366    -0.47613539434541    -1.98531603085006
O   6   8     2.90615122545875     0.36947547242271    -0.06380660259594
O   7   8    -1.02480036707776    -0.78170410868758     5.58840958940515
O   8   8    -4.71990091118567     0.61286652808832     1.81907682367207
O   9   8    -3.21856263809797    -0.39246777018029    -3.24986406162526
C   10   6     2.14873576665020     0.54311106765225    -4.52137384344336
O   11   8     0.97527064535291    -0.64120108160005    -6.63217335814292
H   12   1     0.34900595904142    -0.48214283369541     6.76077111064570
H   13   1    -5.19719092819319     0.02690592056156     3.48444332437202
H   14   1    -0.83535721281623    -0.49952075513691    -6.37469817367093
H   15   1    -4.90002393620084     0.08874342853570    -2.71063260170675
O   16   8     4.22615893853768     0.10859122202201     4.07505454789134
H   17   1     4.38166639105427     1.93178575891951     3.94362220620171
H   18   1     2.36505838530753    -2.71537014510103     2.34202262384909
H   19   1    -0.22188597236806     2.38358526023277     3.34538215831753
H   20   1    -2.40897751016855    -2.53158672058258     1.22868291865708
H   21   1    -1.45404220764209     2.56502731408288    -1.31752650267738
H   22   1     1.14953551938192    -2.55944317338479    -2.06041941621865
H   23   1     1.89192576577406     2.61534694132780    -4.54974430175146
H   24   1     4.17463555575142     0.13656105839169    -4.65046670419078
[GTO]
1 0
 s    8 1.00
                  6665  0.00069158396281299
                  1000  0.0053257961529341
                   228   0.027060721042034
                 64.71    0.10165684614077
                 21.06     0.2745748236174
                 7.495    0.44829431892377
                 2.797    0.28490261071525
                0.5215   0.015194859206082
 s    8 1.00
                  6665  -0.00029326965268655
                  1000  -0.0023180354739745
                   228  -0.011499786038565
                 64.71  -0.046826727009787
                 21.06   -0.12846616875047
                 7.495   -0.30126627246289
                 2.797   -0.25563070233011
                0.5215      1.093793361012
 s    1 1.00
                0.1596                   1
 p    3 1.00
                 9.439   0.056979251590039
                 2.002    0.31320721150073
                0.5456    0.76037674173753
 p    1 1.00
                0.1517                   1
 d    1 1.00
                  0.55                   1

2 0
 s    8 1.00
                  6665  0.00069158396281299
                  1000  0.0053257961529341
                   228   0.027060721042034
                 64.71    0.10165684614077
                 21.06     0.2745748236174
                 7.495    0.44829431892377
                 2.797    0.28490261071525
                0.5215   0.015194859206082
 s    8 1.00
                  6665  -0.00029326965268655
                  1000  -0.0023180354739745
                   228  -0.011499786038565
                 64.71  -0.046826727009787
                 21.06   -0.12846616875047
                 7.495   -0.30126627246289
                 2.797   -0.25563070233011
                0.5215      1.093793361012
 s    1 1.00
                0.1596                   1
 p    3 1.00
                 9.439   0.056979251590039
                 2.002    0.31320721150073
                0.5456    0.76037674173753
 p    1 1.00
                0.1517                   1
 d    1 1.00
                  0.55                   1

3 0
 s    8 1.00
                  6665  0.00069158396281299
                  1000  0.0053257961529341
                   228   0.027060721042034
                 64.71    0.10165684614077
                 21.06     0.2745748236174
                 7.495    0.44829431892377
                 2.797    0.28490261071525
                0.5215   0.015194859206082
 s    8 1.00
                  6665  -0.00029326965268655
                  1000  -0.0023180354739745
                   228  -0.011499786038565
                 64.71  -0.046826727009787
                 21.06   -0.12846616875047
                 7.495   -0.30126627246289
                 2.797   -0.25563070233011
                0.5215      1.093793361012
 s    1 1.00
                0.1596                   1
 p    3 1.00
                 9.439   0.056979251590039
                 2.002    0.31320721150073
                0.5456    0.76037674173753
 p    1 1.00
                0.1517                   1
 d    1 1.00
                  0.55                   1

4 0
 s    8 1.00
                  6665  0.00069158396281299
                  1000  0.0053257961529341
                   228   0.027060721042034
                 64.71    0.10165684614077
                 21.06     0.2745748236174
                 7.495    0.44829431892377
                 2.797    0.28490261071525
                0.5215   0.015194859206082
 s    8 1.00
                  6665  -0.00029326965268655
                  1000  -0.0023180354739745
                   228  -0.011499786038565
                 64.71  -0.046826727009787
                 21.06   -0.12846616875047
                 7.495   -0.30126627246289
                 2.797   -0.25563070233011
                0.5215      1.093793361012
 s    1 1.00
                0.1596                   1
 p    3 1.00
                 9.439   0.056979251590039
                 2.002    0.31320721150073
                0.5456    0.76037674173753
 p    1 1.00
                0.1517                   1
 d    1 1.00
                  0.55                   1

5 0
 s    8 1.00
                  6665  0.00069158396281299
                  1000  0.0053257961529341
                   228   0.027060721042034
                 64.71    0.10165684614077
                 21.06     0.2745748236174
                 7.495    0.44829431892377
                 2.797    0.28490261071525
                0.5215   0.015194859206082
 s    8 1.00
                  6665  -0.00029326965268655
                  1000  -0.0023180354739745
                   228  -0.011499786038565
                 64.71  -0.046826727009787
                 21.06   -0.12846616875047
                 7.495   -0.30126627246289
                 2.797   -0.25563070233011
                0.5215      1.093793361012
 s    1 1.00
                0.1596                   1
 p    3 1.00
                 9.439   0.056979251590039
                 2.002    0.31320721150073
                0.5456    0.76037674173753
 p    1 1.00
                0.1517                   1
 d    1 1.00
                  0.55                   1

6 0
 s    8 1.00
                 11720  0.00070964594651845
                  1759  0.0054672722921914
                 400.8   0.027823118610189
                 113.7    0.10474773971146
                 37.03    0.28292084635691
                 13.27    0.44849523869833
                 5.025    0.27081688521277
                 1.013    0.01545029160744
 s    8 1.00
                 11720  -0.00031444341168873
                  1759  -0.0024821376810179
                 400.8  -0.012316355381583
                 113.7  -0.050538917343672
                 37.03   -0.13938490331632
                 13.27   -0.32507749481778
                 5.025   -0.22984830758785
                 1.013     1.0953793467883
 s    1 1.00
                0.3023                   1
 p    3 1.00
                  17.7   0.062679166281506
                 3.854    0.33353656587936
                 1.046    0.74123964163973
 p    1 1.00
                0.2753                   1
 d    1 1.00
                 1.185                   1

7 0
 s    8 1.00
                 11720  0.00070964594651845
                  1759  0.0054672722921914
                 400.8   0.027823118610189
                 113.7    0.10474773971146
                 37.03    0.28292084635691
                 13.27    0.44849523869833
                 5.025    0.27081688521277
                 1.013    0.01545029160744
 s    8 1.00
                 11720  -0.00031444341168873
                  1759  -0.0024821376810179
                 400.8  -0.012316355381583
                 113.7  -0.050538917343672
                 37.03   -0.13938490331632
                 13.27   -0.32507749481778
                 5.025   -0.22984830758785
                 1.013     1.0953793467883
 s    1 1.00
                0.3023                   1
 p    3 1.00
                  17.7   0.062679166281506
                 3.854    0.33353656587936
                 1.046    0.74123964163973
 p    1 1.00
                0.2753                   1
 d    1 1.00
                 1.185                   1

8 0
 s    8 1.00
                 11720  0.00070964594651845
                  1759  0.0054672722921914
                 400.8   0.027823118610189
                 113.7    0.10474773971146
                 37.03    0.28292084635691
                 13.27    0.44849523869833
                 5.025    0.27081688521277
                 1.013    0.01545029160744
 s    8 1.00
                 11720  -0.00031444341168873
                  1759  -0.0024821376810179
                 400.8  -0.012316355381583
                 113.7  -0.050538917343672
                 37.03   -0.13938490331632
                 13.27   -0.32507749481778
                 5.025   -0.22984830758785
                 1.013     1.0953793467883
 s    1 1.00
                0.3023                   1
 p    3 1.00
                  17.7   0.062679166281506
                 3.854    0.33353656587936
                 1.046    0.74123964163973
 p    1 1.00
                0.2753                   1
 d    1 1.00
                 1.185                   1

9 0
 s    8 1.00
                 11720  0.00070964594651845
                  1759  0.0054672722921914
                 400.8   0.027823118610189
                 113.7    0.10474773971146
                 37.03    0.28292084635691
                 13.27    0.44849523869833
                 5.025    0.27081688521277
                 1.013    0.01545029160744
 s    8 1.00
                 11720  -0.00031444341168873
                  1759  -0.0024821376810179
                 400.8  -0.012316355381583
                 113.7  -0.050538917343672
                 37.03   -0.13938490331632
                 13.27   -0.32507749481778
                 5.025   -0.22984830758785
                 1.013     1.0953793467883
 s    1 1.00
                0.3023                   1
 p    3 1.00
                  17.7   0.062679166281506
                 3.854    0.33353656587936
                 1.046    0.74123964163973
 p    1 1.00
                0.2753                   1
 d    1 1.00
                 1.185                   1

10 0
 s    8 1.00
                  6665  0.00069158396281299
                  1000  0.0053257961529341
                   228   0.027060721042034
                 64.71    0.10165684614077
                 21.06     0.2745748236174
                 7.495    0.44829431892377
                 2.797    0.28490261071525
                0.5215   0.015194859206082
 s    8 1.00
                  6665  -0.00029326965268655
                  1000  -0.0023180354739745
                   228  -0.011499786038565
                 64.71  -0.046826727009787
                 21.06   -0.12846616875047
                 7.495   -0.30126627246289
                 2.797   -0.25563070233011
                0.5215      1.093793361012
 s    1 1.00
                0.1596                   1
 p    3 1.00
                 9.439   0.056979251590039
                 2.002    0.31320721150073
                0.5456    0.76037674173753
 p    1 1.00
                0.1517                   1
 d    1 1.00
                  0.55                   1

11 0
 s    8 1.00
                 11720  0.00070964594651845
                  1759  0.0054672722921914
                 400.8   0.027823118610189
                 113.7    0.10474773971146
                 37.03    0.28292084635691
                 13.27    0.44849523869833
                 5.025    0.27081688521277
                 1.013    0.01545029160744
 s    8 1.00
                 11720  -0.00031444341168873
                  1759  -0.0024821376810179
                 400.8  -0.012316355381583
                 113.7  -0.050538917343672
                 37.03   -0.13938490331632
                 13.27   -0.32507749481778
                 5.025   -0.22984830758785
                 1.013     1.0953793467883
 s    1 1.00
                0.3023                   1
 p    3 1.00
                  17.7   0.062679166281506
                 3.854    0.33353656587936
                 1.046    0.74123964163973
 p    1 1.00
                0.2753                   1
 d    1 1.00
                 1.185                   1

12 0
 s    3 1.00
                 13.01   0.033498726389998
                 1.962    0.23480080117413
                0.4446     0.8136829578829
 s    1 1.00
                 0.122                   1
 p    1 1.00
                 0.727                   1

13 0
 s    3 1.00
                 13.01   0.033498726389998
                 1.962    0.23480080117413
                0.4446     0.8136829578829
 s    1 1.00
                 0.122                   1
 p    1 1.00
                 0.727                   1

14 0
 s    3 1.00
                 13.01   0.033498726389998
                 1.962    0.23480080117413
                0.4446     0.8136829578829
 s    1 1.00
                 0.122                   1
 p    1 1.00
                 0.727                   1

15 0
 s    3 1.00
                 13.01   0.033498726389998
                 1.962    0.23480080117413
                0.4446     0.8136829578829
 s    1 1.00
                 0.122                   1
 p    1 1.00
                 0.727                   1

16 0
 s    8 1.00
                 11720  0.00070964594651845
                  1759  0.0054672722921914
                 400.8   0.027823118610189
                 113.7    0.10474773971146
                 37.03    0.28292084635691
                 13.27    0.44849523869833
                 5.025    0.27081688521277
                 1.013    0.01545029160744
 s    8 1.00
                 11720  -0.00031444341168873
                  1759  -0.0024821376810179
                 400.8  -0.012316355381583
                 113.7  -0.050538917343672
                 37.03   -0.13938490331632
                 13.27   -0.32507749481778
                 5.025   -0.22984830758785
                 1.013     1.0953793467883
 s    1 1.00
                0.3023                   1
 p    3 1.00
                  17.7   0.062679166281506
                 3.854    0.33353656587936
                 1.046    0.74123964163973
 p    1 1.00
                0.2753                   1
 d    1 1.00
                 1.185                   1

17 0
 s    3 1.00
                 13.01   0.033498726389998
                 1.962    0.23480080117413
                0.4446     0.8136829578829
 s    1 1.00
                 0.122                   1
 p    1 1.00
                 0.727                   1

18 0
 s    3 1.00
                 13.01   0.033498726389998
                 1.962    0.23480080117413
                0.4446     0.8136829578829
 s    1 1.00
                 0.122                   1
 p    1 1.00
                 0.727                   1

19 0
 s    3 1.00
                 13.01   0.033498726389998
                 1.962    0.23480080117413
                0.4446     0.8136829578829
 s    1 1.00
                 0.122                   1
 p    1 1.00
                 0.727                   1

20 0
 s    3 1.00
                 13.01   0.033498726389998
                 1.962    0.23480080117413
                0.4446     0.8136829578829
 s    1 1.00
                 0.122                   1
 p    1 1.00
                 0.727                   1

21 0
 s    3 1.00
                 13.01   0.033498726389998
                 1.962    0.23480080117413
                0.4446     0.8136829578829
 s    1 1.00
                 0.122                   1
 p    1 1.00
                 0.727                   1

22 0
 s    3 1.00
                 13.01   0.033498726389998
                 1.962    0.23480080117413
                0.4446     0.8136829578829
 s    1 1.00
                 0.122                   1
 p    1 1.00
                 0.727                   1

23 0
 s    3 1.00
                 13.01   0.033498726389998
                 1.962    0.23480080117413
                0.4446     0.8136829578829
 s    1 1.00
                 0.122                   1
 p    1 1.00
                 0.727                   1

24 0
 s    3 1.00
                 13.01   0.033498726389998
                 1.962    0.23480080117413
                0.4446     0.8136829578829
 s    1 1.00
                 0.122                   1
 p    1 1.00
                 0.727                   1

[5d]
[7f]
[9g]

[MO]
 Sym= A
 Ene=     -20.5892274
 Spin= Alpha
 Occup=    2.00000
   1    0.0014335873637225
   2     0.012308959915385
   3       0.0142085822123
   4    -0.016705120527686
   5     0.005512894934209
   6     0.008172703424371
   7    -0.0047430128508046
   8    -0.0019315815354071
   9     0.004078500582842
  10    0.0001542029556181
  11    -0.00065308413374361
  12    0.00013086427464314
  13    -0.00050896030308913
  14    -2.9625584508366e-05
  15    0.0007044461026517
  16    -0.013309894177609
  17    0.0011183351494845
  18     0.018665312403701
  19    0.0042655974287104
  20     0.018563672728512
  21     0.020257374684732
  22    0.0058555422910868
  23    0.0071953519646242
  24    -0.0055799029610645
  25    0.0040985859325926
  26    -0.0046230392638104
  27    0.0086969607151417
  28     -0.00199697125741
  29    -0.0037898421909254
  30      0.15933249185396
  31     0.027809406389335
  32     -0.28581031548845
  33      0.12684835122862
  34      0.07498278391307
  35    -0.095224929265657
  36     0.029498448387239
  37      0.04921538136776
  38    -0.020148518259462
  39    -0.017886039597553
  40    0.0075552516100344
  41     0.031004611501171
  42    -0.032478845657294
  43    -0.0011315374687792
  44    -0.015114862559064
  45     0.042650029265624
  46    0.0064794439021853
  47    0.0058924576147866
  48    -0.022725851401446
  49     0.025779104182231
  50    -0.013138045531911
  51    -0.0099193180396249
  52    0.0016597711256413
  53    -0.0095022346738675
  54    0.0036534829824606
  55    0.0049125171346365
  56    0.0012177046789209
  57    0.0025093344521611
  58     0.012891322746703
  59    -0.0095001882429798
  60    -0.017640954599527
  61    0.0039147313745905
  62    0.0048941223855356
  63    0.0054726225216028
  64    -0.0039201305913828
  65    -0.0083100054736452
  66    6.9405410749453e-05
  67    0.00082143838916024
  68    -0.00010530017072586
  69    -0.00079380967501392
  70    8.6390455764709e-05
  71    -0.00080738851289616
  72    -0.0016435288022584
  73    0.0064457336161553
  74    0.00036627747780529
  75    -0.0014258074280502
  76    -0.0009281078099687
  77    -0.0028158956340307
  78    -0.0018180379899621
  79    -0.00080974771250845
  80    -0.00010421179928959
  81    1.7177080139201e-05
  82    -3.5511446755313e-07
  83    0.00026880014436642
  84    0.00024593634306721
  85    -0.00034137105103421
  86    -0.0021481816768286
  87    -9.9564815801619e-05
  88    -0.00010792241709358
  89    -0.0023836962094474
  90    0.0047861264675309
  91    -0.0048580537704957
  92    -0.0025206604078861
  93    0.0020029200328189
  94    -0.00061215890119607
  95    -0.00010824587359982
  96    -0.00016386619024417
  97    0.00027048703368801
  98    -2.5359894243943e-05
  99    -0.0077103676929965
 100      0.20625067840577
 101      0.19702903319401
 102      0.38077120419128
 103     -0.16880663321191
 104    -0.088154482825275
 105      0.24652366254173
 106     -0.11665658248657
 107    -0.044935422153852
 108    -0.012595071295468
 109    0.00066873489063893
 110    0.0011187725346144
 111     0.010586433547277
 112    -0.016685276409114
 113    -0.00044852581072071
 114    -0.0030482802569544
 115    0.00036775921693145
 116    -0.00090526447898047
 117    -0.0019067585278802
 118    -0.0042047297052781
 119    -0.0076334756353428
 120    -0.00050648592316923
 121    -0.0011874129893928
 122    -0.0004738724088001
 123    -0.00070254932534509
 124    0.00017760316487933
 125    0.00041924153221312
 126    6.3692058919946e-05
 127    0.0005233403477042
 128    -0.0024865971458358
 129    -0.014383465838553
 130    0.0029468276239134
 131    0.0023127217080999
 132    -0.0060458142328704
 133    0.0026335874615119
 134    0.0077912054418615
 135    -0.0056360644243785
 136    -0.00062324443311262
 137    -0.00089313983804979
 138    0.00070679083414418
 139    0.00092719907922818
 140    -0.00017149270336536
 141    -0.00015092311537233
 142    -0.00035741311415147
 143    0.0016842286497149
 144    6.1413095783151e-05
 145    -0.00033797430542519
 146    0.00011191622641189
 147     0.001251615303731
 148    -0.0006650128609344
 149    0.0020118176741976
 150    -8.4257304629332e-05
 151    5.5039690929227e-05
 152    2.4802052332363e-05
 153    5.2905712244029e-05
 154    8.8767348122264e-05
 155     0.001389300053837
 156    -0.0010548765468758
 157    -0.00033162363372626
 158    -0.00032457309613271
 159    -0.00059044203265117
 160    -0.048344459666944
 161    -0.046462191692689
 162     0.012210555137932
 163    -0.0066029612065514
 164    -0.00032063015698624
 165    0.00056702672336743
 166    0.0013128292833141
 167    6.128127097477e-06
 168    -5.4395574539044e-05
 169    0.00010944638138817
 170    6.6191102918408e-05
 171    -0.0081211280229755
 172    -0.0013011525675523
 173    3.9507838341125e-05
 174    0.0002797596916463
 175    0.00017337809675455
 176    -0.0021162819939958
 177    -0.0068394228290372
 178    0.0066747564337543
 179    0.00060176205711628
 180    0.0021459662487168
 181    0.0079988837163646
 182     0.001638627913654
 183    0.0016856286506624
 184    -0.00036644406863605
 185    -0.00012703867142589
 186    -0.00017983945471859
 187    0.00031492839652713
 188    7.7318562510154e-06
 189    -0.00044535264988561
 190    0.00092201463427154
 191    0.00020639235726864
 192    -6.3608995919835e-06
 193    -0.00012988900878643
 194    0.00035964154993978
 195    -0.0034481787037407
 196    -0.0010284599019616
 197    0.00047820528651204
 198    -7.6360538979083e-05
 199    -0.010613901745839
 200    -0.015048502718511
 201    0.00031835287128667
 202    0.00058817627713129
 203    0.0011005983851216
 204    -0.022075079901599
 205    -0.024652444656245
 206    -0.0065585394601237
 207    0.0054332262089373
 208    0.00097404336296334
 209    -0.0095333399954264
 210    -0.0076696030764085
 211    -0.00075962088725814
 212    0.00082799088776335
 213    -0.00089234981357495
 214    0.0023932110614601
 215    -0.0009594014560343
 216    -0.00094455999296313
 217    0.00055776166630184
 218    0.0010311701665935
 219    -0.00099762293115389
 220    -0.0020925169516704
 221    6.6350381884114e-05
 222    -2.4416542353763e-05
 223    -6.1996851286592e-05
 224    0.0031230657789452
 225    0.0045241040313524
 226    0.00021974808863269
 227    -9.3465678176661e-05
 228    -0.00039492942240324
