[Molden Format]
made by pyscf v[2.1.0]
[Atoms] (AU)
C   1   6     2.32946917320360    -0.63344186613258     2.37168943427863
C   2   6    -0.29669267073509     0.30039086476086     3.22269546913239
C   3   6    -2.28836574026819    -0.45088865332122     1.27613394164491
C   4   6    -1.50258360260379     0.48150977544368    -1.34195877174189
C   5   6     1.17077037184366    -0.47613539434541    -1.98531603085006
O   6   8     2.90615122545875     0.36947547242271    -0.06380660259594
O   7   8    -1.02480036707776    -0.78170410868758     5.58840958940515
O   8   8    -4.71990091118567     0.61286652808832     1.81907682367207
O   9   8    -3.21856263809797    -0.39246777018029    -3.24986406162526
C   10   6     2.14873576665020     0.54311106765225    -4.52137384344336
O   11   8     0.97527064535291    -0.64120108160005    -6.63217335814292
H   12   1     0.34900595904142    -0.48214283369541     6.76077111064570
H   13   1    -5.19719092819319     0.02690592056156     3.48444332437202
H   14   1    -0.83535721281623    -0.49952075513691    -6.37469817367093
H   15   1    -4.90002393620084     0.08874342853570    -2.71063260170675
O   16   8     4.22615893853768     0.10859122202201     4.07505454789134
H   17   1     4.38166639105427     1.93178575891951     3.94362220620171
H   18   1     2.36505838530753    -2.71537014510103     2.34202262384909
H   19   1    -0.22188597236806     2.38358526023277     3.34538215831753
H   20   1    -2.40897751016855    -2.53158672058258     1.22868291865708
H   21   1    -1.45404220764209     2.56502731408288    -1.31752650267738
H   22   1     1.14953551938192    -2.55944317338479    -2.06041941621865
H   23   1     1.89192576577406     2.61534694132780    -4.54974430175146
H   24   1     4.17463555575142     0.13656105839169    -4.65046670419078
[GTO]
1 0
 s    8 1.00
                  6665  0.00069158396281299
                  1000  0.0053257961529341
                   228   0.027060721042034
                 64.71    0.10165684614077
                 21.06     0.2745748236174
                 7.495    0.44829431892377
                 2.797    0.28490261071525
                0.5215   0.015194859206082
 s    8 1.00
                  6665  -0.00029326965268655
                  1000  -0.0023180354739745
                   228  -0.011499786038565
                 64.71  -0.046826727009787
                 21.06   -0.12846616875047
                 7.495   -0.30126627246289
                 2.797   -0.25563070233011
                0.5215      1.093793361012
 s    1 1.00
                0.1596                   1
 p    3 1.00
                 9.439   0.056979251590039
                 2.002    0.31320721150073
                0.5456    0.76037674173753
 p    1 1.00
                0.1517                   1
 d    1 1.00
                  0.55                   1

2 0
 s    8 1.00
                  6665  0.00069158396281299
                  1000  0.0053257961529341
                   228   0.027060721042034
                 64.71    0.10165684614077
                 21.06     0.2745748236174
                 7.495    0.44829431892377
                 2.797    0.28490261071525
                0.5215   0.015194859206082
 s    8 1.00
                  6665  -0.00029326965268655
                  1000  -0.0023180354739745
                   228  -0.011499786038565
                 64.71  -0.046826727009787
                 21.06   -0.12846616875047
                 7.495   -0.30126627246289
                 2.797   -0.25563070233011
                0.5215      1.093793361012
 s    1 1.00
                0.1596                   1
 p    3 1.00
                 9.439   0.056979251590039
                 2.002    0.31320721150073
                0.5456    0.76037674173753
 p    1 1.00
                0.1517                   1
 d    1 1.00
                  0.55                   1

3 0
 s    8 1.00
                  6665  0.00069158396281299
                  1000  0.0053257961529341
                   228   0.027060721042034
                 64.71    0.10165684614077
                 21.06     0.2745748236174
                 7.495    0.44829431892377
                 2.797    0.28490261071525
                0.5215   0.015194859206082
 s    8 1.00
                  6665  -0.00029326965268655
                  1000  -0.0023180354739745
                   228  -0.011499786038565
                 64.71  -0.046826727009787
                 21.06   -0.12846616875047
                 7.495   -0.30126627246289
                 2.797   -0.25563070233011
                0.5215      1.093793361012
 s    1 1.00
                0.1596                   1
 p    3 1.00
                 9.439   0.056979251590039
                 2.002    0.31320721150073
                0.5456    0.76037674173753
 p    1 1.00
                0.1517                   1
 d    1 1.00
                  0.55                   1

4 0
 s    8 1.00
                  6665  0.00069158396281299
                  1000  0.0053257961529341
                   228   0.027060721042034
                 64.71    0.10165684614077
                 21.06     0.2745748236174
                 7.495    0.44829431892377
                 2.797    0.28490261071525
                0.5215   0.015194859206082
 s    8 1.00
                  6665  -0.00029326965268655
                  1000  -0.0023180354739745
                   228  -0.011499786038565
                 64.71  -0.046826727009787
                 21.06   -0.12846616875047
                 7.495   -0.30126627246289
                 2.797   -0.25563070233011
                0.5215      1.093793361012
 s    1 1.00
                0.1596                   1
 p    3 1.00
                 9.439   0.056979251590039
                 2.002    0.31320721150073
                0.5456    0.76037674173753
 p    1 1.00
                0.1517                   1
 d    1 1.00
                  0.55                   1

5 0
 s    8 1.00
                  6665  0.00069158396281299
                  1000  0.0053257961529341
                   228   0.027060721042034
                 64.71    0.10165684614077
                 21.06     0.2745748236174
                 7.495    0.44829431892377
                 2.797    0.28490261071525
                0.5215   0.015194859206082
 s    8 1.00
                  6665  -0.00029326965268655
                  1000  -0.0023180354739745
                   228  -0.011499786038565
                 64.71  -0.046826727009787
                 21.06   -0.12846616875047
                 7.495   -0.30126627246289
                 2.797   -0.25563070233011
                0.5215      1.093793361012
 s    1 1.00
                0.1596                   1
 p    3 1.00
                 9.439   0.056979251590039
                 2.002    0.31320721150073
                0.5456    0.76037674173753
 p    1 1.00
                0.1517                   1
 d    1 1.00
                  0.55                   1

6 0
 s    8 1.00
                 11720  0.00070964594651845
                  1759  0.0054672722921914
                 400.8   0.027823118610189
                 113.7    0.10474773971146
                 37.03    0.28292084635691
                 13.27    0.44849523869833
                 5.025    0.27081688521277
                 1.013    0.01545029160744
 s    8 1.00
                 11720  -0.00031444341168873
                  1759  -0.0024821376810179
                 400.8  -0.012316355381583
                 113.7  -0.050538917343672
                 37.03   -0.13938490331632
                 13.27   -0.32507749481778
                 5.025   -0.22984830758785
                 1.013     1.0953793467883
 s    1 1.00
                0.3023                   1
 p    3 1.00
                  17.7   0.062679166281506
                 3.854    0.33353656587936
                 1.046    0.74123964163973
 p    1 1.00
                0.2753                   1
 d    1 1.00
                 1.185                   1

7 0
 s    8 1.00
                 11720  0.00070964594651845
                  1759  0.0054672722921914
                 400.8   0.027823118610189
                 113.7    0.10474773971146
                 37.03    0.28292084635691
                 13.27    0.44849523869833
                 5.025    0.27081688521277
                 1.013    0.01545029160744
 s    8 1.00
                 11720  -0.00031444341168873
                  1759  -0.0024821376810179
                 400.8  -0.012316355381583
                 113.7  -0.050538917343672
                 37.03   -0.13938490331632
                 13.27   -0.32507749481778
                 5.025   -0.22984830758785
                 1.013     1.0953793467883
 s    1 1.00
                0.3023                   1
 p    3 1.00
                  17.7   0.062679166281506
                 3.854    0.33353656587936
                 1.046    0.74123964163973
 p    1 1.00
                0.2753                   1
 d    1 1.00
                 1.185                   1

8 0
 s    8 1.00
                 11720  0.00070964594651845
                  1759  0.0054672722921914
                 400.8   0.027823118610189
                 113.7    0.10474773971146
                 37.03    0.28292084635691
                 13.27    0.44849523869833
                 5.025    0.27081688521277
                 1.013    0.01545029160744
 s    8 1.00
                 11720  -0.00031444341168873
                  1759  -0.0024821376810179
                 400.8  -0.012316355381583
                 113.7  -0.050538917343672
                 37.03   -0.13938490331632
                 13.27   -0.32507749481778
                 5.025   -0.22984830758785
                 1.013     1.0953793467883
 s    1 1.00
                0.3023                   1
 p    3 1.00
                  17.7   0.062679166281506
                 3.854    0.33353656587936
                 1.046    0.74123964163973
 p    1 1.00
                0.2753                   1
 d    1 1.00
                 1.185                   1

9 0
 s    8 1.00
                 11720  0.00070964594651845
                  1759  0.0054672722921914
                 400.8   0.027823118610189
                 113.7    0.10474773971146
                 37.03    0.28292084635691
                 13.27    0.44849523869833
                 5.025    0.27081688521277
                 1.013    0.01545029160744
 s    8 1.00
                 11720  -0.00031444341168873
                  1759  -0.0024821376810179
                 400.8  -0.012316355381583
                 113.7  -0.050538917343672
                 37.03   -0.13938490331632
                 13.27   -0.32507749481778
                 5.025   -0.22984830758785
                 1.013     1.0953793467883
 s    1 1.00
                0.3023                   1
 p    3 1.00
                  17.7   0.062679166281506
                 3.854    0.33353656587936
                 1.046    0.74123964163973
 p    1 1.00
                0.2753                   1
 d    1 1.00
                 1.185                   1

10 0
 s    8 1.00
                  6665  0.00069158396281299
                  1000  0.0053257961529341
                   228   0.027060721042034
                 64.71    0.10165684614077
                 21.06     0.2745748236174
                 7.495    0.44829431892377
                 2.797    0.28490261071525
                0.5215   0.015194859206082
 s    8 1.00
                  6665  -0.00029326965268655
                  1000  -0.0023180354739745
                   228  -0.011499786038565
                 64.71  -0.046826727009787
                 21.06   -0.12846616875047
                 7.495   -0.30126627246289
                 2.797   -0.25563070233011
                0.5215      1.093793361012
 s    1 1.00
                0.1596                   1
 p    3 1.00
                 9.439   0.056979251590039
                 2.002    0.31320721150073
                0.5456    0.76037674173753
 p    1 1.00
                0.1517                   1
 d    1 1.00
                  0.55                   1

11 0
 s    8 1.00
                 11720  0.00070964594651845
                  1759  0.0054672722921914
                 400.8   0.027823118610189
                 113.7    0.10474773971146
                 37.03    0.28292084635691
                 13.27    0.44849523869833
                 5.025    0.27081688521277
                 1.013    0.01545029160744
 s    8 1.00
                 11720  -0.00031444341168873
                  1759  -0.0024821376810179
                 400.8  -0.012316355381583
                 113.7  -0.050538917343672
                 37.03   -0.13938490331632
                 13.27   -0.32507749481778
                 5.025   -0.22984830758785
                 1.013     1.0953793467883
 s    1 1.00
                0.3023                   1
 p    3 1.00
                  17.7   0.062679166281506
                 3.854    0.33353656587936
                 1.046    0.74123964163973
 p    1 1.00
                0.2753                   1
 d    1 1.00
                 1.185                   1

12 0
 s    3 1.00
                 13.01   0.033498726389998
                 1.962    0.23480080117413
                0.4446     0.8136829578829
 s    1 1.00
                 0.122                   1
 p    1 1.00
                 0.727                   1

13 0
 s    3 1.00
                 13.01   0.033498726389998
                 1.962    0.23480080117413
                0.4446     0.8136829578829
 s    1 1.00
                 0.122                   1
 p    1 1.00
                 0.727                   1

14 0
 s    3 1.00
                 13.01   0.033498726389998
                 1.962    0.23480080117413
                0.4446     0.8136829578829
 s    1 1.00
                 0.122                   1
 p    1 1.00
                 0.727                   1

15 0
 s    3 1.00
                 13.01   0.033498726389998
                 1.962    0.23480080117413
                0.4446     0.8136829578829
 s    1 1.00
                 0.122                   1
 p    1 1.00
                 0.727                   1

16 0
 s    8 1.00
                 11720  0.00070964594651845
                  1759  0.0054672722921914
                 400.8   0.027823118610189
                 113.7    0.10474773971146
                 37.03    0.28292084635691
                 13.27    0.44849523869833
                 5.025    0.27081688521277
                 1.013    0.01545029160744
 s    8 1.00
                 11720  -0.00031444341168873
                  1759  -0.0024821376810179
                 400.8  -0.012316355381583
                 113.7  -0.050538917343672
                 37.03   -0.13938490331632
                 13.27   -0.32507749481778
                 5.025   -0.22984830758785
                 1.013     1.0953793467883
 s    1 1.00
                0.3023                   1
 p    3 1.00
                  17.7   0.062679166281506
                 3.854    0.33353656587936
                 1.046    0.74123964163973
 p    1 1.00
                0.2753                   1
 d    1 1.00
                 1.185                   1

17 0
 s    3 1.00
                 13.01   0.033498726389998
                 1.962    0.23480080117413
                0.4446     0.8136829578829
 s    1 1.00
                 0.122                   1
 p    1 1.00
                 0.727                   1

18 0
 s    3 1.00
                 13.01   0.033498726389998
                 1.962    0.23480080117413
                0.4446     0.8136829578829
 s    1 1.00
                 0.122                   1
 p    1 1.00
                 0.727                   1

19 0
 s    3 1.00
                 13.01   0.033498726389998
                 1.962    0.23480080117413
                0.4446     0.8136829578829
 s    1 1.00
                 0.122                   1
 p    1 1.00
                 0.727                   1

20 0
 s    3 1.00
                 13.01   0.033498726389998
                 1.962    0.23480080117413
                0.4446     0.8136829578829
 s    1 1.00
                 0.122                   1
 p    1 1.00
                 0.727                   1

21 0
 s    3 1.00
                 13.01   0.033498726389998
                 1.962    0.23480080117413
                0.4446     0.8136829578829
 s    1 1.00
                 0.122                   1
 p    1 1.00
                 0.727                   1

22 0
 s    3 1.00
                 13.01   0.033498726389998
                 1.962    0.23480080117413
                0.4446     0.8136829578829
 s    1 1.00
                 0.122                   1
 p    1 1.00
                 0.727                   1

23 0
 s    3 1.00
                 13.01   0.033498726389998
                 1.962    0.23480080117413
                0.4446     0.8136829578829
 s    1 1.00
                 0.122                   1
 p    1 1.00
                 0.727                   1

24 0
 s    3 1.00
                 13.01   0.033498726389998
                 1.962    0.23480080117413
                0.4446     0.8136829578829
 s    1 1.00
                 0.122                   1
 p    1 1.00
                 0.727                   1

[5d]
[7f]
[9g]

[MO]
 Sym= A
 Ene=     -20.5892274
 Spin= Alpha
 Occup=    2.00000
   1    0.0012174998818945
   2     0.015217417680059
   3     0.031974592684261
   4    0.0079786633814714
   5    0.0094003999405799
   6    -0.020119810297976
   7    -0.0067979059227055
   8    -0.0025324502530505
   9    -0.0097722561509805
  10    -0.002563245609461
  11    -0.0035274724774129
  12    -0.0021086137074377
  13    -0.001007027956893
  14    0.00034640475297999
  15    0.00094301035131968
  16    0.00069689109174992
  17     -0.02209999046441
  18    -0.00087012075039762
  19    -0.00022930677668293
  20    -0.0021846419379115
  21    -0.0020552003866326
  22      0.01919907163784
  23    -0.0011108635593512
  24    0.00072256906838333
  25    -0.00043865015285797
  26    -0.00032022176734138
  27    0.00034888217849212
  28    0.00028813819401246
  29    -0.00032014251421452
  30     0.011195520780313
  31     0.029940462630623
  32    0.00084584513693516
  33    0.0068732841502047
  34    -0.017466014182101
  35     0.028199676711648
  36    -0.0051384599325634
  37    -0.011676273458493
  38    0.00044723432378056
  39    0.0017152513448488
  40    -0.00042509363808882
  41    -0.0014238431265593
  42    0.0015167329337312
  43    0.0010640577982044
  44    -0.012904702481322
  45    -0.041748969609935
  46    -0.028080352794665
  47     0.011456415899788
  48    0.0011240703336217
  49    -0.050968666158899
  50    -0.00077115806896935
  51     0.020815113694572
  52    0.0052825061640175
  53    -0.010812595414492
  54    0.00086368055082702
  55    0.0046760288246424
  56    0.0055597890964439
  57    -0.0070577760488652
  58      0.21267556025104
  59      0.22359098599746
  60      0.13336463751698
  61      0.14471203199444
  62     -0.32917026701661
  63     0.069532476139805
  64      0.10824379066075
  65     -0.19075402732173
  66      0.01926051082163
  67     -0.01802267929703
  68    -0.020354948595376
  69    0.00066744054052155
  70    0.0064903984560342
  71    8.3245738095257e-05
  72    -0.0078431236242651
  73    -0.036275197233733
  74     0.011731324671158
  75    0.0074309854504174
  76     0.013587275719973
  77    0.0006129794975764
  78    -0.0074315439669387
  79     0.032187013868131
  80     0.007778986417433
  81    0.0023314441356899
  82    -0.00051526217769545
  83    -0.00057935207483543
  84    -0.0018649380454956
  85    -0.0005860140349567
  86    -0.00035894061720369
  87    0.0093147332497947
  88    0.00085600162120236
  89    0.00036534270595498
  90    -0.0013910806273522
  91    0.0018365077376252
  92    -0.00014814487807654
  93    -0.0053430731850201
  94    6.7526027132974e-05
  95    -4.8182872119751e-05
  96    5.1426304280142e-05
  97    5.6738389246274e-05
  98    -2.1753767430255e-05
  99    -0.00061519249450203
 100    -0.0044305480061113
 101    -0.0011203732718834
 102    -0.0059773937016679
 103    0.0025223265584836
 104    0.0025451656451743
 105    -0.0038696125476479
 106    0.00014856848467638
 107    0.0033254888922984
 108    0.0003801971528338
 109    -0.00084807893233965
 110    7.7167018845005e-05
 111    0.00021404060068554
 112    0.00014408825190718
 113    0.00070189102079888
 114    0.0013037939596929
 115    -0.0015784037356978
 116    -0.0018497237208026
 117    -0.0027955687647414
 118    -0.0034481847466195
 119    -0.0083709455864557
 120    -0.0019437001826914
 121    -0.0025431330485299
 122    0.00023797556495021
 123    -0.00060939705372455
 124    0.00020923013468688
 125    -0.00015717222552037
 126    1.3440434071262e-05
 127    -0.0042932466416795
 128      0.20793891898165
 129     0.089203701657628
 130     -0.14135447128416
 131     -0.14069384921418
 132      0.30599196556266
 133    -0.066564100364097
 134    -0.055370714921526
 135      0.07722931821696
 136     0.020723000554824
 137    -0.018236217931434
 138     -0.01739435611237
 139    0.0014359846181811
 140    0.0079514364470299
 141    0.00032998627184975
 142    -0.0071388160416567
 143       -0.024825390742
 144    -0.002384171570046
 145    -0.0056133649534355
 146    -0.023574361590439
 147     0.002339187003122
 148    0.0058495979780448
 149    -0.047162027225978
 150     0.006204587814167
 151    0.00063345060929226
 152    0.00012131418159051
 153    -0.00050601303882909
 154    -0.0019861668602574
 155    -7.5439407595807e-05
 156    0.0017188287508424
 157    0.00015520399647829
 158    0.00010720710605373
 159    -3.7113725193748e-05
 160    0.0034529036336881
 161    0.0076995271791364
 162    -0.00044437917672904
 163    0.00018622910611751
 164    0.00033398619081488
 165    -0.012467677016528
 166    -0.0088510122960462
 167    0.00026368875766511
 168    0.00032598886151958
 169    -0.0017782175147952
 170    -0.0036610993796871
 171    -0.0084545999770196
 172    -0.00079059689087333
 173    -0.00015710302218654
 174    8.9808990291528e-05
 175    -0.00036725126274328
 176    -0.0035337548423414
 177    -0.001828271082153
 178    0.0035412169682894
 179    0.00088749994119674
 180    0.0065076802528585
 181    0.0023806571890196
 182    0.0018649490669702
 183    0.0067421854501266
 184    0.00036539107218118
 185    0.00030701496055019
 186    0.00017239048789493
 187    -7.6632146978194e-05
 188    2.297632104992e-05
 189    -0.0014127758575023
 190    0.00025851407841306
 191    1.8191485961014e-05
 192    0.00043784438007253
 193    0.00010058947137711
 194    -0.00030988119914027
 195    0.0023300693686532
 196    0.00043288768111033
 197    0.00048643193192035
 198    -0.0017711375436103
 199    -0.0033682617581684
 200    -0.008018015690379
 201    7.6784509823777e-05
 202    -0.00010657660446508
 203    -5.8540630741473e-05
 204    -0.00061428545709241
 205    0.0010312807413121
 206    -0.00068184750730953
 207    0.00074725516676777
 208    -0.00053411847274014
 209    -0.010313391319304
 210     -0.01516990047316
 211    -0.0015866382103802
 212    0.00068937718447348
 213    0.00063928461316738
 214    -0.018026994183202
 215    -0.041945116735342
 216    0.0036011791938622
 217    0.0045320913111435
 218    -0.0043249866994456
 219    -0.025538824183538
 220    -0.053225632171292
 221    -0.002891467223192
 222    -0.0051194335282027
 223    0.0065389458228304
 224    -0.020147691355911
 225    -0.040072738475896
 226    -0.0050513640888534
 227    -0.0035908030542878
 228    0.0072900293140446
