[Molden Format]
made by pyscf v[2.1.0]
[Atoms] (AU)
C   1   6     2.32946917320360    -0.63344186613258     2.37168943427863
C   2   6    -0.29669267073509     0.30039086476086     3.22269546913239
C   3   6    -2.28836574026819    -0.45088865332122     1.27613394164491
C   4   6    -1.50258360260379     0.48150977544368    -1.34195877174189
C   5   6     1.17077037184366    -0.47613539434541    -1.98531603085006
O   6   8     2.90615122545875     0.36947547242271    -0.06380660259594
O   7   8    -1.02480036707776    -0.78170410868758     5.58840958940515
O   8   8    -4.71990091118567     0.61286652808832     1.81907682367207
O   9   8    -3.21856263809797    -0.39246777018029    -3.24986406162526
C   10   6     2.14873576665020     0.54311106765225    -4.52137384344336
O   11   8     0.97527064535291    -0.64120108160005    -6.63217335814292
H   12   1     0.34900595904142    -0.48214283369541     6.76077111064570
H   13   1    -5.19719092819319     0.02690592056156     3.48444332437202
H   14   1    -0.83535721281623    -0.49952075513691    -6.37469817367093
H   15   1    -4.90002393620084     0.08874342853570    -2.71063260170675
O   16   8     4.22615893853768     0.10859122202201     4.07505454789134
H   17   1     4.38166639105427     1.93178575891951     3.94362220620171
H   18   1     2.36505838530753    -2.71537014510103     2.34202262384909
H   19   1    -0.22188597236806     2.38358526023277     3.34538215831753
H   20   1    -2.40897751016855    -2.53158672058258     1.22868291865708
H   21   1    -1.45404220764209     2.56502731408288    -1.31752650267738
H   22   1     1.14953551938192    -2.55944317338479    -2.06041941621865
H   23   1     1.89192576577406     2.61534694132780    -4.54974430175146
H   24   1     4.17463555575142     0.13656105839169    -4.65046670419078
[GTO]
1 0
 s    8 1.00
                  6665  0.00069158396281299
                  1000  0.0053257961529341
                   228   0.027060721042034
                 64.71    0.10165684614077
                 21.06     0.2745748236174
                 7.495    0.44829431892377
                 2.797    0.28490261071525
                0.5215   0.015194859206082
 s    8 1.00
                  6665  -0.00029326965268655
                  1000  -0.0023180354739745
                   228  -0.011499786038565
                 64.71  -0.046826727009787
                 21.06   -0.12846616875047
                 7.495   -0.30126627246289
                 2.797   -0.25563070233011
                0.5215      1.093793361012
 s    1 1.00
                0.1596                   1
 p    3 1.00
                 9.439   0.056979251590039
                 2.002    0.31320721150073
                0.5456    0.76037674173753
 p    1 1.00
                0.1517                   1
 d    1 1.00
                  0.55                   1

2 0
 s    8 1.00
                  6665  0.00069158396281299
                  1000  0.0053257961529341
                   228   0.027060721042034
                 64.71    0.10165684614077
                 21.06     0.2745748236174
                 7.495    0.44829431892377
                 2.797    0.28490261071525
                0.5215   0.015194859206082
 s    8 1.00
                  6665  -0.00029326965268655
                  1000  -0.0023180354739745
                   228  -0.011499786038565
                 64.71  -0.046826727009787
                 21.06   -0.12846616875047
                 7.495   -0.30126627246289
                 2.797   -0.25563070233011
                0.5215      1.093793361012
 s    1 1.00
                0.1596                   1
 p    3 1.00
                 9.439   0.056979251590039
                 2.002    0.31320721150073
                0.5456    0.76037674173753
 p    1 1.00
                0.1517                   1
 d    1 1.00
                  0.55                   1

3 0
 s    8 1.00
                  6665  0.00069158396281299
                  1000  0.0053257961529341
                   228   0.027060721042034
                 64.71    0.10165684614077
                 21.06     0.2745748236174
                 7.495    0.44829431892377
                 2.797    0.28490261071525
                0.5215   0.015194859206082
 s    8 1.00
                  6665  -0.00029326965268655
                  1000  -0.0023180354739745
                   228  -0.011499786038565
                 64.71  -0.046826727009787
                 21.06   -0.12846616875047
                 7.495   -0.30126627246289
                 2.797   -0.25563070233011
                0.5215      1.093793361012
 s    1 1.00
                0.1596                   1
 p    3 1.00
                 9.439   0.056979251590039
                 2.002    0.31320721150073
                0.5456    0.76037674173753
 p    1 1.00
                0.1517                   1
 d    1 1.00
                  0.55                   1

4 0
 s    8 1.00
                  6665  0.00069158396281299
                  1000  0.0053257961529341
                   228   0.027060721042034
                 64.71    0.10165684614077
                 21.06     0.2745748236174
                 7.495    0.44829431892377
                 2.797    0.28490261071525
                0.5215   0.015194859206082
 s    8 1.00
                  6665  -0.00029326965268655
                  1000  -0.0023180354739745
                   228  -0.011499786038565
                 64.71  -0.046826727009787
                 21.06   -0.12846616875047
                 7.495   -0.30126627246289
                 2.797   -0.25563070233011
                0.5215      1.093793361012
 s    1 1.00
                0.1596                   1
 p    3 1.00
                 9.439   0.056979251590039
                 2.002    0.31320721150073
                0.5456    0.76037674173753
 p    1 1.00
                0.1517                   1
 d    1 1.00
                  0.55                   1

5 0
 s    8 1.00
                  6665  0.00069158396281299
                  1000  0.0053257961529341
                   228   0.027060721042034
                 64.71    0.10165684614077
                 21.06     0.2745748236174
                 7.495    0.44829431892377
                 2.797    0.28490261071525
                0.5215   0.015194859206082
 s    8 1.00
                  6665  -0.00029326965268655
                  1000  -0.0023180354739745
                   228  -0.011499786038565
                 64.71  -0.046826727009787
                 21.06   -0.12846616875047
                 7.495   -0.30126627246289
                 2.797   -0.25563070233011
                0.5215      1.093793361012
 s    1 1.00
                0.1596                   1
 p    3 1.00
                 9.439   0.056979251590039
                 2.002    0.31320721150073
                0.5456    0.76037674173753
 p    1 1.00
                0.1517                   1
 d    1 1.00
                  0.55                   1

6 0
 s    8 1.00
                 11720  0.00070964594651845
                  1759  0.0054672722921914
                 400.8   0.027823118610189
                 113.7    0.10474773971146
                 37.03    0.28292084635691
                 13.27    0.44849523869833
                 5.025    0.27081688521277
                 1.013    0.01545029160744
 s    8 1.00
                 11720  -0.00031444341168873
                  1759  -0.0024821376810179
                 400.8  -0.012316355381583
                 113.7  -0.050538917343672
                 37.03   -0.13938490331632
                 13.27   -0.32507749481778
                 5.025   -0.22984830758785
                 1.013     1.0953793467883
 s    1 1.00
                0.3023                   1
 p    3 1.00
                  17.7   0.062679166281506
                 3.854    0.33353656587936
                 1.046    0.74123964163973
 p    1 1.00
                0.2753                   1
 d    1 1.00
                 1.185                   1

7 0
 s    8 1.00
                 11720  0.00070964594651845
                  1759  0.0054672722921914
                 400.8   0.027823118610189
                 113.7    0.10474773971146
                 37.03    0.28292084635691
                 13.27    0.44849523869833
                 5.025    0.27081688521277
                 1.013    0.01545029160744
 s    8 1.00
                 11720  -0.00031444341168873
                  1759  -0.0024821376810179
                 400.8  -0.012316355381583
                 113.7  -0.050538917343672
                 37.03   -0.13938490331632
                 13.27   -0.32507749481778
                 5.025   -0.22984830758785
                 1.013     1.0953793467883
 s    1 1.00
                0.3023                   1
 p    3 1.00
                  17.7   0.062679166281506
                 3.854    0.33353656587936
                 1.046    0.74123964163973
 p    1 1.00
                0.2753                   1
 d    1 1.00
                 1.185                   1

8 0
 s    8 1.00
                 11720  0.00070964594651845
                  1759  0.0054672722921914
                 400.8   0.027823118610189
                 113.7    0.10474773971146
                 37.03    0.28292084635691
                 13.27    0.44849523869833
                 5.025    0.27081688521277
                 1.013    0.01545029160744
 s    8 1.00
                 11720  -0.00031444341168873
                  1759  -0.0024821376810179
                 400.8  -0.012316355381583
                 113.7  -0.050538917343672
                 37.03   -0.13938490331632
                 13.27   -0.32507749481778
                 5.025   -0.22984830758785
                 1.013     1.0953793467883
 s    1 1.00
                0.3023                   1
 p    3 1.00
                  17.7   0.062679166281506
                 3.854    0.33353656587936
                 1.046    0.74123964163973
 p    1 1.00
                0.2753                   1
 d    1 1.00
                 1.185                   1

9 0
 s    8 1.00
                 11720  0.00070964594651845
                  1759  0.0054672722921914
                 400.8   0.027823118610189
                 113.7    0.10474773971146
                 37.03    0.28292084635691
                 13.27    0.44849523869833
                 5.025    0.27081688521277
                 1.013    0.01545029160744
 s    8 1.00
                 11720  -0.00031444341168873
                  1759  -0.0024821376810179
                 400.8  -0.012316355381583
                 113.7  -0.050538917343672
                 37.03   -0.13938490331632
                 13.27   -0.32507749481778
                 5.025   -0.22984830758785
                 1.013     1.0953793467883
 s    1 1.00
                0.3023                   1
 p    3 1.00
                  17.7   0.062679166281506
                 3.854    0.33353656587936
                 1.046    0.74123964163973
 p    1 1.00
                0.2753                   1
 d    1 1.00
                 1.185                   1

10 0
 s    8 1.00
                  6665  0.00069158396281299
                  1000  0.0053257961529341
                   228   0.027060721042034
                 64.71    0.10165684614077
                 21.06     0.2745748236174
                 7.495    0.44829431892377
                 2.797    0.28490261071525
                0.5215   0.015194859206082
 s    8 1.00
                  6665  -0.00029326965268655
                  1000  -0.0023180354739745
                   228  -0.011499786038565
                 64.71  -0.046826727009787
                 21.06   -0.12846616875047
                 7.495   -0.30126627246289
                 2.797   -0.25563070233011
                0.5215      1.093793361012
 s    1 1.00
                0.1596                   1
 p    3 1.00
                 9.439   0.056979251590039
                 2.002    0.31320721150073
                0.5456    0.76037674173753
 p    1 1.00
                0.1517                   1
 d    1 1.00
                  0.55                   1

11 0
 s    8 1.00
                 11720  0.00070964594651845
                  1759  0.0054672722921914
                 400.8   0.027823118610189
                 113.7    0.10474773971146
                 37.03    0.28292084635691
                 13.27    0.44849523869833
                 5.025    0.27081688521277
                 1.013    0.01545029160744
 s    8 1.00
                 11720  -0.00031444341168873
                  1759  -0.0024821376810179
                 400.8  -0.012316355381583
                 113.7  -0.050538917343672
                 37.03   -0.13938490331632
                 13.27   -0.32507749481778
                 5.025   -0.22984830758785
                 1.013     1.0953793467883
 s    1 1.00
                0.3023                   1
 p    3 1.00
                  17.7   0.062679166281506
                 3.854    0.33353656587936
                 1.046    0.74123964163973
 p    1 1.00
                0.2753                   1
 d    1 1.00
                 1.185                   1

12 0
 s    3 1.00
                 13.01   0.033498726389998
                 1.962    0.23480080117413
                0.4446     0.8136829578829
 s    1 1.00
                 0.122                   1
 p    1 1.00
                 0.727                   1

13 0
 s    3 1.00
                 13.01   0.033498726389998
                 1.962    0.23480080117413
                0.4446     0.8136829578829
 s    1 1.00
                 0.122                   1
 p    1 1.00
                 0.727                   1

14 0
 s    3 1.00
                 13.01   0.033498726389998
                 1.962    0.23480080117413
                0.4446     0.8136829578829
 s    1 1.00
                 0.122                   1
 p    1 1.00
                 0.727                   1

15 0
 s    3 1.00
                 13.01   0.033498726389998
                 1.962    0.23480080117413
                0.4446     0.8136829578829
 s    1 1.00
                 0.122                   1
 p    1 1.00
                 0.727                   1

16 0
 s    8 1.00
                 11720  0.00070964594651845
                  1759  0.0054672722921914
                 400.8   0.027823118610189
                 113.7    0.10474773971146
                 37.03    0.28292084635691
                 13.27    0.44849523869833
                 5.025    0.27081688521277
                 1.013    0.01545029160744
 s    8 1.00
                 11720  -0.00031444341168873
                  1759  -0.0024821376810179
                 400.8  -0.012316355381583
                 113.7  -0.050538917343672
                 37.03   -0.13938490331632
                 13.27   -0.32507749481778
                 5.025   -0.22984830758785
                 1.013     1.0953793467883
 s    1 1.00
                0.3023                   1
 p    3 1.00
                  17.7   0.062679166281506
                 3.854    0.33353656587936
                 1.046    0.74123964163973
 p    1 1.00
                0.2753                   1
 d    1 1.00
                 1.185                   1

17 0
 s    3 1.00
                 13.01   0.033498726389998
                 1.962    0.23480080117413
                0.4446     0.8136829578829
 s    1 1.00
                 0.122                   1
 p    1 1.00
                 0.727                   1

18 0
 s    3 1.00
                 13.01   0.033498726389998
                 1.962    0.23480080117413
                0.4446     0.8136829578829
 s    1 1.00
                 0.122                   1
 p    1 1.00
                 0.727                   1

19 0
 s    3 1.00
                 13.01   0.033498726389998
                 1.962    0.23480080117413
                0.4446     0.8136829578829
 s    1 1.00
                 0.122                   1
 p    1 1.00
                 0.727                   1

20 0
 s    3 1.00
                 13.01   0.033498726389998
                 1.962    0.23480080117413
                0.4446     0.8136829578829
 s    1 1.00
                 0.122                   1
 p    1 1.00
                 0.727                   1

21 0
 s    3 1.00
                 13.01   0.033498726389998
                 1.962    0.23480080117413
                0.4446     0.8136829578829
 s    1 1.00
                 0.122                   1
 p    1 1.00
                 0.727                   1

22 0
 s    3 1.00
                 13.01   0.033498726389998
                 1.962    0.23480080117413
                0.4446     0.8136829578829
 s    1 1.00
                 0.122                   1
 p    1 1.00
                 0.727                   1

23 0
 s    3 1.00
                 13.01   0.033498726389998
                 1.962    0.23480080117413
                0.4446     0.8136829578829
 s    1 1.00
                 0.122                   1
 p    1 1.00
                 0.727                   1

24 0
 s    3 1.00
                 13.01   0.033498726389998
                 1.962    0.23480080117413
                0.4446     0.8136829578829
 s    1 1.00
                 0.122                   1
 p    1 1.00
                 0.727                   1

[5d]
[7f]
[9g]

[MO]
 Sym= A
 Ene=     -20.5892274
 Spin= Alpha
 Occup=    2.00000
   1    0.0010875328577502
   2    -0.001735517456895
   3    -0.024108889884489
   4    0.0053482254565635
   5    -0.0045498968649642
   6    0.0061889645103884
   7     0.017284489314485
   8    -0.0046590949908512
   9    0.00089736798677251
  10    -0.0010013137097149
  11    -0.00048335228969084
  12    6.4802876788626e-05
  13    0.00096179638129442
  14    0.00033594476054488
  15    0.00040975308788634
  16    -0.00094399661770136
  17    0.0094190831499334
  18    0.0034725470015408
  19     0.003379909573884
  20    0.0074575078787184
  21      0.01100037549083
  22    -0.013768266289016
  23     0.016729326643515
  24    -0.0013650875607003
  25    -0.00080470346135491
  26    0.00066329461278689
  27    -0.00046741596853357
  28    0.00076246927204618
  29    -0.0018743643764554
  30     -0.02369638614865
  31    -0.026443171807862
  32    0.0039765040113421
  33     -0.01666930418297
  34     0.024185363017769
  35    -0.019347031900904
  36    0.0066789296081529
  37      0.03458246871581
  38    -0.00028954143096731
  39    -0.012084101570515
  40     0.006069877496781
  41    0.0083874430377458
  42    -0.00047031570300404
  43    -0.0066071808811635
  44      0.20610394664974
  45      0.15474473589772
  46      0.34093159767836
  47     -0.13548785669926
  48    -0.099410301853528
  49      0.16194079360835
  50    -0.078536478663023
  51    -0.046107289096722
  52    -0.012812200073345
  53    -0.013670679504075
  54    0.0031423336295449
  55     0.021328270669181
  56    -0.020111475076574
  57    -0.0078498520495388
  58      0.20389284584527
  59      0.14335590284857
  60      -0.3354142015205
  61      0.13255191829885
  62      0.09328772713678
  63     -0.13769602524537
  64     0.065048197164768
  65     0.069300525419993
  66    -0.011626245167311
  67    -0.013906151950923
  68    0.0042184197331757
  69      0.02366858262689
  70    -0.018404176553142
  71    -3.8720203140384e-05
  72    -0.0070739021322864
  73    -0.028366689908747
  74     0.022920748419065
  75    0.0045962694916002
  76     0.010586400123677
  77     0.045852162221598
  78    -0.0090085987143382
  79     0.010197830005116
  80    -0.0027073975965716
  81    0.0035854039524115
  82    -0.0018474421490446
  83    0.0045312624871314
  84    -4.3727902576926e-08
  85    0.00094479671205721
  86    0.0018201403763355
  87    -0.011055826186753
  88    -0.0003884664155479
  89    -0.00052412578148787
  90    -0.00084077629572821
  91    -0.00084285452007699
  92    -0.0011654494447074
  93    0.0054850725109901
  94    -0.00018348721247268
  95    -6.8853880391391e-05
  96    -0.00016598927411286
  97    -2.7649937562243e-05
  98    0.00010730073173848
  99    0.00024714031042552
 100    0.0067981390036975
 101     0.017249040777473
 102     0.017375552536945
 103    -0.0060508642306342
 104    -0.0030670266615414
 105     0.014652464142662
 106    2.7610246565401e-05
 107    -0.013305416136607
 108    -0.00063313329484851
 109    0.0014527324593011
 110    0.00037532182667108
 111    -0.0005028556533066
 112    -0.00017999935042339
 113    0.0005906167800505
 114    -0.0066013188496287
 115    -0.040807470089196
 116    -0.014888993872674
 117    -0.0056448502074628
 118     -0.01282503518346
 119    -0.026396041675153
 120    0.0084965215577303
 121    -0.0047959621494375
 122    -0.0037429431093907
 123    0.0032168846981412
 124    -0.0017155690898226
 125    0.0061096585301862
 126    1.2718577812635e-05
 127    -0.0010714906953089
 128    -0.017372574237135
 129    -0.017243459283273
 130    0.0062751179823164
 131     0.011394931477244
 132    -0.026295933059162
 133      0.01599769353972
 134    -0.0074664022264851
 135    -0.017320034504696
 136    0.00015469409437069
 137    -0.0098293466858334
 138     0.004891044993335
 139    0.0080987886813452
 140    0.00093476921935182
 141    0.00010595381949618
 142    -0.0001999024915635
 143     0.002483236401969
 144     0.001122222200907
 145    -0.0018424017178467
 146    0.0019041205268173
 147    -0.0042796297259699
 148    -0.0018628227400002
 149    0.0022031113661421
 150    -0.00065353852667468
 151    -0.00036610041308399
 152    0.00021511436527921
 153    0.00032570205420083
 154    0.00029615562006634
 155    -0.0010379076726828
 156    -0.0034538684922881
 157    2.0922900855901e-05
 158    -0.00020867893926538
 159    0.00023340788612316
 160    -0.0071584842586797
 161     -0.01107295753896
 162      0.00148066174713
 163    -0.00030753072758729
 164    -0.00067692742249467
 165    0.00027863127156559
 166    -0.010510298075248
 167    -0.00063875949479129
 168    -0.00027194950442832
 169    -0.0011186503233759
 170     0.024775541006287
 171     0.033990945886299
 172    -0.0016957855068557
 173    -0.0011824415066212
 174    -0.0019518930866589
 175    -1.0605130945797e-05
 176    4.0766483630578e-05
 177    -0.0027096643146901
 178     -0.00157154686448
 179    -0.00061822194777448
 180    0.00090457500805461
 181    -0.0018786204782775
 182    0.0012128368969061
 183    0.0013998694516326
 184    5.2535404619035e-05
 185    -6.3637349599328e-05
 186    6.0885705880564e-05
 187    7.0536111646329e-05
 188    5.8236382519743e-05
 189    -0.0010031373327549
 190    0.0012690742051865
 191    4.7805081037587e-05
 192    0.00010452215138907
 193    -1.44487113034e-05
 194    -0.00035981544887823
 195    -0.0011414784868481
 196    -0.00027956288853177
 197    2.3558671999168e-05
 198    0.0001715021757341
 199     0.005366530654888
 200    0.0044896079771399
 201    -4.7640952710529e-05
 202    0.00041262203769225
 203    -0.00022300021804253
 204    -0.006482549977393
 205    -0.0094214427640926
 206    -0.00026842975086601
 207    -0.00063964954686419
 208    0.0017648473683339
 209    -0.020338034268622
 210     -0.04389877300405
 211    0.0050723467133682
 212    -0.0050094608928275
 213    -0.0031430657557938
 214    -0.027249387433859
 215    -0.050407336733744
 216    -0.0059448324455677
 217    0.0047928255507262
 218    0.0013145558881354
 219    -0.011423306511941
 220    -0.014893222217664
 221    0.0013495057578951
 222    0.00061904143263045
 223    -0.0025741740331409
 224     0.015820301197228
 225     0.035935987975721
 226    0.00048146053988585
 227    0.00037286500734044
 228    0.0012068563981954
