[Molden Format]
made by pyscf v[2.1.0]
[Atoms] (AU)
C   1   6     2.32946917320360    -0.63344186613258     2.37168943427863
C   2   6    -0.29669267073509     0.30039086476086     3.22269546913239
C   3   6    -2.28836574026819    -0.45088865332122     1.27613394164491
C   4   6    -1.50258360260379     0.48150977544368    -1.34195877174189
C   5   6     1.17077037184366    -0.47613539434541    -1.98531603085006
O   6   8     2.90615122545875     0.36947547242271    -0.06380660259594
O   7   8    -1.02480036707776    -0.78170410868758     5.58840958940515
O   8   8    -4.71990091118567     0.61286652808832     1.81907682367207
O   9   8    -3.21856263809797    -0.39246777018029    -3.24986406162526
C   10   6     2.14873576665020     0.54311106765225    -4.52137384344336
O   11   8     0.97527064535291    -0.64120108160005    -6.63217335814292
H   12   1     0.34900595904142    -0.48214283369541     6.76077111064570
H   13   1    -5.19719092819319     0.02690592056156     3.48444332437202
H   14   1    -0.83535721281623    -0.49952075513691    -6.37469817367093
H   15   1    -4.90002393620084     0.08874342853570    -2.71063260170675
O   16   8     4.22615893853768     0.10859122202201     4.07505454789134
H   17   1     4.38166639105427     1.93178575891951     3.94362220620171
H   18   1     2.36505838530753    -2.71537014510103     2.34202262384909
H   19   1    -0.22188597236806     2.38358526023277     3.34538215831753
H   20   1    -2.40897751016855    -2.53158672058258     1.22868291865708
H   21   1    -1.45404220764209     2.56502731408288    -1.31752650267738
H   22   1     1.14953551938192    -2.55944317338479    -2.06041941621865
H   23   1     1.89192576577406     2.61534694132780    -4.54974430175146
H   24   1     4.17463555575142     0.13656105839169    -4.65046670419078
[GTO]
1 0
 s    8 1.00
                  6665  0.00069158396281299
                  1000  0.0053257961529341
                   228   0.027060721042034
                 64.71    0.10165684614077
                 21.06     0.2745748236174
                 7.495    0.44829431892377
                 2.797    0.28490261071525
                0.5215   0.015194859206082
 s    8 1.00
                  6665  -0.00029326965268655
                  1000  -0.0023180354739745
                   228  -0.011499786038565
                 64.71  -0.046826727009787
                 21.06   -0.12846616875047
                 7.495   -0.30126627246289
                 2.797   -0.25563070233011
                0.5215      1.093793361012
 s    1 1.00
                0.1596                   1
 p    3 1.00
                 9.439   0.056979251590039
                 2.002    0.31320721150073
                0.5456    0.76037674173753
 p    1 1.00
                0.1517                   1
 d    1 1.00
                  0.55                   1

2 0
 s    8 1.00
                  6665  0.00069158396281299
                  1000  0.0053257961529341
                   228   0.027060721042034
                 64.71    0.10165684614077
                 21.06     0.2745748236174
                 7.495    0.44829431892377
                 2.797    0.28490261071525
                0.5215   0.015194859206082
 s    8 1.00
                  6665  -0.00029326965268655
                  1000  -0.0023180354739745
                   228  -0.011499786038565
                 64.71  -0.046826727009787
                 21.06   -0.12846616875047
                 7.495   -0.30126627246289
                 2.797   -0.25563070233011
                0.5215      1.093793361012
 s    1 1.00
                0.1596                   1
 p    3 1.00
                 9.439   0.056979251590039
                 2.002    0.31320721150073
                0.5456    0.76037674173753
 p    1 1.00
                0.1517                   1
 d    1 1.00
                  0.55                   1

3 0
 s    8 1.00
                  6665  0.00069158396281299
                  1000  0.0053257961529341
                   228   0.027060721042034
                 64.71    0.10165684614077
                 21.06     0.2745748236174
                 7.495    0.44829431892377
                 2.797    0.28490261071525
                0.5215   0.015194859206082
 s    8 1.00
                  6665  -0.00029326965268655
                  1000  -0.0023180354739745
                   228  -0.011499786038565
                 64.71  -0.046826727009787
                 21.06   -0.12846616875047
                 7.495   -0.30126627246289
                 2.797   -0.25563070233011
                0.5215      1.093793361012
 s    1 1.00
                0.1596                   1
 p    3 1.00
                 9.439   0.056979251590039
                 2.002    0.31320721150073
                0.5456    0.76037674173753
 p    1 1.00
                0.1517                   1
 d    1 1.00
                  0.55                   1

4 0
 s    8 1.00
                  6665  0.00069158396281299
                  1000  0.0053257961529341
                   228   0.027060721042034
                 64.71    0.10165684614077
                 21.06     0.2745748236174
                 7.495    0.44829431892377
                 2.797    0.28490261071525
                0.5215   0.015194859206082
 s    8 1.00
                  6665  -0.00029326965268655
                  1000  -0.0023180354739745
                   228  -0.011499786038565
                 64.71  -0.046826727009787
                 21.06   -0.12846616875047
                 7.495   -0.30126627246289
                 2.797   -0.25563070233011
                0.5215      1.093793361012
 s    1 1.00
                0.1596                   1
 p    3 1.00
                 9.439   0.056979251590039
                 2.002    0.31320721150073
                0.5456    0.76037674173753
 p    1 1.00
                0.1517                   1
 d    1 1.00
                  0.55                   1

5 0
 s    8 1.00
                  6665  0.00069158396281299
                  1000  0.0053257961529341
                   228   0.027060721042034
                 64.71    0.10165684614077
                 21.06     0.2745748236174
                 7.495    0.44829431892377
                 2.797    0.28490261071525
                0.5215   0.015194859206082
 s    8 1.00
                  6665  -0.00029326965268655
                  1000  -0.0023180354739745
                   228  -0.011499786038565
                 64.71  -0.046826727009787
                 21.06   -0.12846616875047
                 7.495   -0.30126627246289
                 2.797   -0.25563070233011
                0.5215      1.093793361012
 s    1 1.00
                0.1596                   1
 p    3 1.00
                 9.439   0.056979251590039
                 2.002    0.31320721150073
                0.5456    0.76037674173753
 p    1 1.00
                0.1517                   1
 d    1 1.00
                  0.55                   1

6 0
 s    8 1.00
                 11720  0.00070964594651845
                  1759  0.0054672722921914
                 400.8   0.027823118610189
                 113.7    0.10474773971146
                 37.03    0.28292084635691
                 13.27    0.44849523869833
                 5.025    0.27081688521277
                 1.013    0.01545029160744
 s    8 1.00
                 11720  -0.00031444341168873
                  1759  -0.0024821376810179
                 400.8  -0.012316355381583
                 113.7  -0.050538917343672
                 37.03   -0.13938490331632
                 13.27   -0.32507749481778
                 5.025   -0.22984830758785
                 1.013     1.0953793467883
 s    1 1.00
                0.3023                   1
 p    3 1.00
                  17.7   0.062679166281506
                 3.854    0.33353656587936
                 1.046    0.74123964163973
 p    1 1.00
                0.2753                   1
 d    1 1.00
                 1.185                   1

7 0
 s    8 1.00
                 11720  0.00070964594651845
                  1759  0.0054672722921914
                 400.8   0.027823118610189
                 113.7    0.10474773971146
                 37.03    0.28292084635691
                 13.27    0.44849523869833
                 5.025    0.27081688521277
                 1.013    0.01545029160744
 s    8 1.00
                 11720  -0.00031444341168873
                  1759  -0.0024821376810179
                 400.8  -0.012316355381583
                 113.7  -0.050538917343672
                 37.03   -0.13938490331632
                 13.27   -0.32507749481778
                 5.025   -0.22984830758785
                 1.013     1.0953793467883
 s    1 1.00
                0.3023                   1
 p    3 1.00
                  17.7   0.062679166281506
                 3.854    0.33353656587936
                 1.046    0.74123964163973
 p    1 1.00
                0.2753                   1
 d    1 1.00
                 1.185                   1

8 0
 s    8 1.00
                 11720  0.00070964594651845
                  1759  0.0054672722921914
                 400.8   0.027823118610189
                 113.7    0.10474773971146
                 37.03    0.28292084635691
                 13.27    0.44849523869833
                 5.025    0.27081688521277
                 1.013    0.01545029160744
 s    8 1.00
                 11720  -0.00031444341168873
                  1759  -0.0024821376810179
                 400.8  -0.012316355381583
                 113.7  -0.050538917343672
                 37.03   -0.13938490331632
                 13.27   -0.32507749481778
                 5.025   -0.22984830758785
                 1.013     1.0953793467883
 s    1 1.00
                0.3023                   1
 p    3 1.00
                  17.7   0.062679166281506
                 3.854    0.33353656587936
                 1.046    0.74123964163973
 p    1 1.00
                0.2753                   1
 d    1 1.00
                 1.185                   1

9 0
 s    8 1.00
                 11720  0.00070964594651845
                  1759  0.0054672722921914
                 400.8   0.027823118610189
                 113.7    0.10474773971146
                 37.03    0.28292084635691
                 13.27    0.44849523869833
                 5.025    0.27081688521277
                 1.013    0.01545029160744
 s    8 1.00
                 11720  -0.00031444341168873
                  1759  -0.0024821376810179
                 400.8  -0.012316355381583
                 113.7  -0.050538917343672
                 37.03   -0.13938490331632
                 13.27   -0.32507749481778
                 5.025   -0.22984830758785
                 1.013     1.0953793467883
 s    1 1.00
                0.3023                   1
 p    3 1.00
                  17.7   0.062679166281506
                 3.854    0.33353656587936
                 1.046    0.74123964163973
 p    1 1.00
                0.2753                   1
 d    1 1.00
                 1.185                   1

10 0
 s    8 1.00
                  6665  0.00069158396281299
                  1000  0.0053257961529341
                   228   0.027060721042034
                 64.71    0.10165684614077
                 21.06     0.2745748236174
                 7.495    0.44829431892377
                 2.797    0.28490261071525
                0.5215   0.015194859206082
 s    8 1.00
                  6665  -0.00029326965268655
                  1000  -0.0023180354739745
                   228  -0.011499786038565
                 64.71  -0.046826727009787
                 21.06   -0.12846616875047
                 7.495   -0.30126627246289
                 2.797   -0.25563070233011
                0.5215      1.093793361012
 s    1 1.00
                0.1596                   1
 p    3 1.00
                 9.439   0.056979251590039
                 2.002    0.31320721150073
                0.5456    0.76037674173753
 p    1 1.00
                0.1517                   1
 d    1 1.00
                  0.55                   1

11 0
 s    8 1.00
                 11720  0.00070964594651845
                  1759  0.0054672722921914
                 400.8   0.027823118610189
                 113.7    0.10474773971146
                 37.03    0.28292084635691
                 13.27    0.44849523869833
                 5.025    0.27081688521277
                 1.013    0.01545029160744
 s    8 1.00
                 11720  -0.00031444341168873
                  1759  -0.0024821376810179
                 400.8  -0.012316355381583
                 113.7  -0.050538917343672
                 37.03   -0.13938490331632
                 13.27   -0.32507749481778
                 5.025   -0.22984830758785
                 1.013     1.0953793467883
 s    1 1.00
                0.3023                   1
 p    3 1.00
                  17.7   0.062679166281506
                 3.854    0.33353656587936
                 1.046    0.74123964163973
 p    1 1.00
                0.2753                   1
 d    1 1.00
                 1.185                   1

12 0
 s    3 1.00
                 13.01   0.033498726389998
                 1.962    0.23480080117413
                0.4446     0.8136829578829
 s    1 1.00
                 0.122                   1
 p    1 1.00
                 0.727                   1

13 0
 s    3 1.00
                 13.01   0.033498726389998
                 1.962    0.23480080117413
                0.4446     0.8136829578829
 s    1 1.00
                 0.122                   1
 p    1 1.00
                 0.727                   1

14 0
 s    3 1.00
                 13.01   0.033498726389998
                 1.962    0.23480080117413
                0.4446     0.8136829578829
 s    1 1.00
                 0.122                   1
 p    1 1.00
                 0.727                   1

15 0
 s    3 1.00
                 13.01   0.033498726389998
                 1.962    0.23480080117413
                0.4446     0.8136829578829
 s    1 1.00
                 0.122                   1
 p    1 1.00
                 0.727                   1

16 0
 s    8 1.00
                 11720  0.00070964594651845
                  1759  0.0054672722921914
                 400.8   0.027823118610189
                 113.7    0.10474773971146
                 37.03    0.28292084635691
                 13.27    0.44849523869833
                 5.025    0.27081688521277
                 1.013    0.01545029160744
 s    8 1.00
                 11720  -0.00031444341168873
                  1759  -0.0024821376810179
                 400.8  -0.012316355381583
                 113.7  -0.050538917343672
                 37.03   -0.13938490331632
                 13.27   -0.32507749481778
                 5.025   -0.22984830758785
                 1.013     1.0953793467883
 s    1 1.00
                0.3023                   1
 p    3 1.00
                  17.7   0.062679166281506
                 3.854    0.33353656587936
                 1.046    0.74123964163973
 p    1 1.00
                0.2753                   1
 d    1 1.00
                 1.185                   1

17 0
 s    3 1.00
                 13.01   0.033498726389998
                 1.962    0.23480080117413
                0.4446     0.8136829578829
 s    1 1.00
                 0.122                   1
 p    1 1.00
                 0.727                   1

18 0
 s    3 1.00
                 13.01   0.033498726389998
                 1.962    0.23480080117413
                0.4446     0.8136829578829
 s    1 1.00
                 0.122                   1
 p    1 1.00
                 0.727                   1

19 0
 s    3 1.00
                 13.01   0.033498726389998
                 1.962    0.23480080117413
                0.4446     0.8136829578829
 s    1 1.00
                 0.122                   1
 p    1 1.00
                 0.727                   1

20 0
 s    3 1.00
                 13.01   0.033498726389998
                 1.962    0.23480080117413
                0.4446     0.8136829578829
 s    1 1.00
                 0.122                   1
 p    1 1.00
                 0.727                   1

21 0
 s    3 1.00
                 13.01   0.033498726389998
                 1.962    0.23480080117413
                0.4446     0.8136829578829
 s    1 1.00
                 0.122                   1
 p    1 1.00
                 0.727                   1

22 0
 s    3 1.00
                 13.01   0.033498726389998
                 1.962    0.23480080117413
                0.4446     0.8136829578829
 s    1 1.00
                 0.122                   1
 p    1 1.00
                 0.727                   1

23 0
 s    3 1.00
                 13.01   0.033498726389998
                 1.962    0.23480080117413
                0.4446     0.8136829578829
 s    1 1.00
                 0.122                   1
 p    1 1.00
                 0.727                   1

24 0
 s    3 1.00
                 13.01   0.033498726389998
                 1.962    0.23480080117413
                0.4446     0.8136829578829
 s    1 1.00
                 0.122                   1
 p    1 1.00
                 0.727                   1

[5d]
[7f]
[9g]

[MO]
 Sym= A
 Ene=     -20.5892274
 Spin= Alpha
 Occup=    2.00000
   1    0.00051383574077178
   2    -0.00067992851476893
   3    -0.0061704048379583
   4    0.0013303293448372
   5    0.00014081916800545
   6    0.00087344478603925
   7    -0.0082189945230724
   8    -0.00094191112818146
   9    0.0054596868672521
  10    -0.00026602632126909
  11    -0.00051014926918102
  12    -0.00017785611140033
  13    0.00037364050639536
  14    -0.00039668491452531
  15    0.0024603385824342
  16    0.0011595367768672
  17    -0.057980424479141
  18    0.0059069385108696
  19    0.0055643285492585
  20     0.005376369094713
  21     0.020957474804608
  22     0.027646227095071
  23     0.021389539287353
  24    0.00093882464725406
  25    -0.0014161110879751
  26    -0.00046152726499331
  27    -0.0015516031779694
  28    -0.0012158029432036
  29    0.00061955059158908
  30     0.016461977188661
  31     0.052638852480928
  32    0.0037427440602545
  33    -0.005193714087884
  34    -0.026604310406071
  35     0.052718980894399
  36    -0.018996358316001
  37     0.034493575818954
  38    0.00079348480871464
  39    0.0010037859833932
  40    0.0012830383135404
  41    0.00011868664589933
  42    -0.00030265550905703
  43     0.001909517452258
  44     0.024426909083512
  45     0.030817605858875
  46    -0.021582425202049
  47    -0.0099227209093164
  48    -0.026125128108835
  49    -0.061539350438923
  50    0.0019338698056178
  51    -0.015284986994364
  52     0.012476108631449
  53    0.0060160029773686
  54    -0.017394939804456
  55     0.016856349395094
  56     -0.01612564198699
  57    -0.00018920667139314
  58     0.014359428735353
  59     0.051939133852354
  60    -0.021280943717294
  61    -0.0038407178831264
  62    0.0049221529237892
  63    -0.014231325583375
  64    -0.0052549409020518
  65     0.043476988586963
  66    -0.0014609850272325
  67    0.00028864213193108
  68    -0.00064464315395169
  69    0.0017180480185592
  70    2.4608257139882e-05
  71    0.00081865855898147
  72    7.4372674336962e-05
  73    -0.011251851065891
  74    0.0035407830872832
  75     0.004565204081165
  76      0.00265133907989
  77     0.008552695281662
  78    0.0074565804182269
  79    0.0087907829878139
  80    -0.00022064915605689
  81    -0.00012297243233804
  82    -0.00013640007656577
  83    0.00027784632099393
  84    3.3408674529838e-05
  85    -0.00043542059135415
  86    -0.00018026037591658
  87    0.0088389719689765
  88    -0.0003791821256635
  89    -0.00074723101130822
  90    -0.0010538789662268
  91     0.001122905759854
  92    -0.0021542528488739
  93    -0.0022438450281061
  94    -0.00020690250086983
  95    -4.1694152282095e-05
  96    4.473874375841e-05
  97    3.6886835427953e-05
  98    7.3669231211326e-06
  99    -0.0013975974538956
 100    -0.0029159833574785
 101     0.013369242686867
 102    0.0003902838827581
 103    -0.00056511460205163
 104    0.0018459023731407
 105    0.0051315885757637
 106    -0.0022411946017733
 107    -0.0062903581364946
 108    0.0003173325218247
 109    -0.00073287203685122
 110    0.00011665276596549
 111    5.6111149335699e-05
 112    -0.00027933444669763
 113    0.0041755953448633
 114     -0.18937712381699
 115     -0.27729069756844
 116     -0.02071127559978
 117      0.57864897817399
 118    -0.062216945039751
 119    -0.0090853741757514
 120      0.44087711993085
 121    -0.058489200218816
 122    -0.0062355244215265
 123    -9.0606358757944e-05
 124     0.012292632531456
 125    -0.0068360671929371
 126    -0.0025425303936604
 127    -0.0027453381779811
 128    -0.0047266726879835
 129     0.031979502076458
 130    0.0005886357760627
 131    -0.00019563094657935
 132    -0.00032796973254007
 133    -0.021656144916943
 134    -0.011517515494092
 135    0.0043036065212118
 136    -0.00070734914280222
 137    -0.0011098500939276
 138    0.00010410705949444
 139    0.0013379149283492
 140    0.00063165158270598
 141    0.00063442484442457
 142    0.0021947891471729
 143    -0.0066486923182588
 144    -0.004050581574646
 145    -0.0036750116979796
 146    0.0015379957063508
 147    -0.0053708655247636
 148    -0.004423850336984
 149    -0.0047474604122876
 150    -0.00020986639531441
 151    -0.00019467087796168
 152    3.5631691997228e-05
 153    0.00016939703081238
 154    -6.2338595674727e-05
 155    -0.0027295161127272
 156    -0.0038957387245007
 157    0.00026415439014464
 158    -5.3677059601054e-06
 159    0.00056093929832365
 160    0.0031980335887307
 161    0.0083956808962647
 162    -0.00042081785060497
 163    0.00061427980428925
 164    -0.0002142825834266
 165    0.0036110539108101
 166    -0.012290893024475
 167    0.00070729854499936
 168     0.002278131706727
 169    -0.0013530888312537
 170     0.051028199961614
 171     0.010823986734699
 172    0.0062682037915184
 173     0.024223033364683
 174    -0.0049482398870291
 175    -2.9422008294426e-05
 176    -0.00025031232235972
 177    0.00085305526977327
 178    -0.00010547268265986
 179    -0.0004326348219009
 180    0.0002582599484621
 181    0.0018044108233598
 182    -0.00070689385181587
 183    -0.0017771354927269
 184    0.00010577248191106
 185    3.6698473072002e-05
 186    1.2795916127488e-05
 187    -5.3096418222546e-05
 188    1.0709801831586e-05
 189    4.1802781598588e-05
 190    -0.00028728174917162
 191    -5.7112769261589e-05
 192    0.00019127882331802
 193    -3.2713794755248e-05
 194    -0.00037433876577616
 195     0.008081228791602
 196    -1.3377850229569e-05
 197    0.0005035690410204
 198    -2.8079209144869e-05
 199    0.0041373462046777
 200    -0.0072123463126875
 201    -0.00014183637094737
 202    -0.00014037242678877
 203    0.00012689655142955
 204    0.0075391354443391
 205    -0.034415220639628
 206    -0.0008752970100849
 207    -0.00043720379629119
 208    0.00045372106713429
 209    -0.051245814787766
 210    -0.055001972904638
 211    0.0021859387139485
 212    -0.00075341976944163
 213    0.00034671117556334
 214    0.0053769264600198
 215    -0.028780165411901
 216    0.0016063964820323
 217    -0.00073595363659151
 218    -0.0003811526946268
 219    -0.0031271169860283
 220    0.0053247720859566
 221    0.00075664680783618
 222    -0.00019165386673288
 223    -9.4374012745544e-05
 224    0.0018796911811358
 225     0.011578305752834
 226    0.00034364279588118
 227    0.00063104722613887
 228    0.00025923624684072
