[Molden Format]
made by pyscf v[2.1.0]
[Atoms] (AU)
C   1   6     2.32946917320360    -0.63344186613258     2.37168943427863
C   2   6    -0.29669267073509     0.30039086476086     3.22269546913239
C   3   6    -2.28836574026819    -0.45088865332122     1.27613394164491
C   4   6    -1.50258360260379     0.48150977544368    -1.34195877174189
C   5   6     1.17077037184366    -0.47613539434541    -1.98531603085006
O   6   8     2.90615122545875     0.36947547242271    -0.06380660259594
O   7   8    -1.02480036707776    -0.78170410868758     5.58840958940515
O   8   8    -4.71990091118567     0.61286652808832     1.81907682367207
O   9   8    -3.21856263809797    -0.39246777018029    -3.24986406162526
C   10   6     2.14873576665020     0.54311106765225    -4.52137384344336
O   11   8     0.97527064535291    -0.64120108160005    -6.63217335814292
H   12   1     0.34900595904142    -0.48214283369541     6.76077111064570
H   13   1    -5.19719092819319     0.02690592056156     3.48444332437202
H   14   1    -0.83535721281623    -0.49952075513691    -6.37469817367093
H   15   1    -4.90002393620084     0.08874342853570    -2.71063260170675
O   16   8     4.22615893853768     0.10859122202201     4.07505454789134
H   17   1     4.38166639105427     1.93178575891951     3.94362220620171
H   18   1     2.36505838530753    -2.71537014510103     2.34202262384909
H   19   1    -0.22188597236806     2.38358526023277     3.34538215831753
H   20   1    -2.40897751016855    -2.53158672058258     1.22868291865708
H   21   1    -1.45404220764209     2.56502731408288    -1.31752650267738
H   22   1     1.14953551938192    -2.55944317338479    -2.06041941621865
H   23   1     1.89192576577406     2.61534694132780    -4.54974430175146
H   24   1     4.17463555575142     0.13656105839169    -4.65046670419078
[GTO]
1 0
 s    8 1.00
                  6665  0.00069158396281299
                  1000  0.0053257961529341
                   228   0.027060721042034
                 64.71    0.10165684614077
                 21.06     0.2745748236174
                 7.495    0.44829431892377
                 2.797    0.28490261071525
                0.5215   0.015194859206082
 s    8 1.00
                  6665  -0.00029326965268655
                  1000  -0.0023180354739745
                   228  -0.011499786038565
                 64.71  -0.046826727009787
                 21.06   -0.12846616875047
                 7.495   -0.30126627246289
                 2.797   -0.25563070233011
                0.5215      1.093793361012
 s    1 1.00
                0.1596                   1
 p    3 1.00
                 9.439   0.056979251590039
                 2.002    0.31320721150073
                0.5456    0.76037674173753
 p    1 1.00
                0.1517                   1
 d    1 1.00
                  0.55                   1

2 0
 s    8 1.00
                  6665  0.00069158396281299
                  1000  0.0053257961529341
                   228   0.027060721042034
                 64.71    0.10165684614077
                 21.06     0.2745748236174
                 7.495    0.44829431892377
                 2.797    0.28490261071525
                0.5215   0.015194859206082
 s    8 1.00
                  6665  -0.00029326965268655
                  1000  -0.0023180354739745
                   228  -0.011499786038565
                 64.71  -0.046826727009787
                 21.06   -0.12846616875047
                 7.495   -0.30126627246289
                 2.797   -0.25563070233011
                0.5215      1.093793361012
 s    1 1.00
                0.1596                   1
 p    3 1.00
                 9.439   0.056979251590039
                 2.002    0.31320721150073
                0.5456    0.76037674173753
 p    1 1.00
                0.1517                   1
 d    1 1.00
                  0.55                   1

3 0
 s    8 1.00
                  6665  0.00069158396281299
                  1000  0.0053257961529341
                   228   0.027060721042034
                 64.71    0.10165684614077
                 21.06     0.2745748236174
                 7.495    0.44829431892377
                 2.797    0.28490261071525
                0.5215   0.015194859206082
 s    8 1.00
                  6665  -0.00029326965268655
                  1000  -0.0023180354739745
                   228  -0.011499786038565
                 64.71  -0.046826727009787
                 21.06   -0.12846616875047
                 7.495   -0.30126627246289
                 2.797   -0.25563070233011
                0.5215      1.093793361012
 s    1 1.00
                0.1596                   1
 p    3 1.00
                 9.439   0.056979251590039
                 2.002    0.31320721150073
                0.5456    0.76037674173753
 p    1 1.00
                0.1517                   1
 d    1 1.00
                  0.55                   1

4 0
 s    8 1.00
                  6665  0.00069158396281299
                  1000  0.0053257961529341
                   228   0.027060721042034
                 64.71    0.10165684614077
                 21.06     0.2745748236174
                 7.495    0.44829431892377
                 2.797    0.28490261071525
                0.5215   0.015194859206082
 s    8 1.00
                  6665  -0.00029326965268655
                  1000  -0.0023180354739745
                   228  -0.011499786038565
                 64.71  -0.046826727009787
                 21.06   -0.12846616875047
                 7.495   -0.30126627246289
                 2.797   -0.25563070233011
                0.5215      1.093793361012
 s    1 1.00
                0.1596                   1
 p    3 1.00
                 9.439   0.056979251590039
                 2.002    0.31320721150073
                0.5456    0.76037674173753
 p    1 1.00
                0.1517                   1
 d    1 1.00
                  0.55                   1

5 0
 s    8 1.00
                  6665  0.00069158396281299
                  1000  0.0053257961529341
                   228   0.027060721042034
                 64.71    0.10165684614077
                 21.06     0.2745748236174
                 7.495    0.44829431892377
                 2.797    0.28490261071525
                0.5215   0.015194859206082
 s    8 1.00
                  6665  -0.00029326965268655
                  1000  -0.0023180354739745
                   228  -0.011499786038565
                 64.71  -0.046826727009787
                 21.06   -0.12846616875047
                 7.495   -0.30126627246289
                 2.797   -0.25563070233011
                0.5215      1.093793361012
 s    1 1.00
                0.1596                   1
 p    3 1.00
                 9.439   0.056979251590039
                 2.002    0.31320721150073
                0.5456    0.76037674173753
 p    1 1.00
                0.1517                   1
 d    1 1.00
                  0.55                   1

6 0
 s    8 1.00
                 11720  0.00070964594651845
                  1759  0.0054672722921914
                 400.8   0.027823118610189
                 113.7    0.10474773971146
                 37.03    0.28292084635691
                 13.27    0.44849523869833
                 5.025    0.27081688521277
                 1.013    0.01545029160744
 s    8 1.00
                 11720  -0.00031444341168873
                  1759  -0.0024821376810179
                 400.8  -0.012316355381583
                 113.7  -0.050538917343672
                 37.03   -0.13938490331632
                 13.27   -0.32507749481778
                 5.025   -0.22984830758785
                 1.013     1.0953793467883
 s    1 1.00
                0.3023                   1
 p    3 1.00
                  17.7   0.062679166281506
                 3.854    0.33353656587936
                 1.046    0.74123964163973
 p    1 1.00
                0.2753                   1
 d    1 1.00
                 1.185                   1

7 0
 s    8 1.00
                 11720  0.00070964594651845
                  1759  0.0054672722921914
                 400.8   0.027823118610189
                 113.7    0.10474773971146
                 37.03    0.28292084635691
                 13.27    0.44849523869833
                 5.025    0.27081688521277
                 1.013    0.01545029160744
 s    8 1.00
                 11720  -0.00031444341168873
                  1759  -0.0024821376810179
                 400.8  -0.012316355381583
                 113.7  -0.050538917343672
                 37.03   -0.13938490331632
                 13.27   -0.32507749481778
                 5.025   -0.22984830758785
                 1.013     1.0953793467883
 s    1 1.00
                0.3023                   1
 p    3 1.00
                  17.7   0.062679166281506
                 3.854    0.33353656587936
                 1.046    0.74123964163973
 p    1 1.00
                0.2753                   1
 d    1 1.00
                 1.185                   1

8 0
 s    8 1.00
                 11720  0.00070964594651845
                  1759  0.0054672722921914
                 400.8   0.027823118610189
                 113.7    0.10474773971146
                 37.03    0.28292084635691
                 13.27    0.44849523869833
                 5.025    0.27081688521277
                 1.013    0.01545029160744
 s    8 1.00
                 11720  -0.00031444341168873
                  1759  -0.0024821376810179
                 400.8  -0.012316355381583
                 113.7  -0.050538917343672
                 37.03   -0.13938490331632
                 13.27   -0.32507749481778
                 5.025   -0.22984830758785
                 1.013     1.0953793467883
 s    1 1.00
                0.3023                   1
 p    3 1.00
                  17.7   0.062679166281506
                 3.854    0.33353656587936
                 1.046    0.74123964163973
 p    1 1.00
                0.2753                   1
 d    1 1.00
                 1.185                   1

9 0
 s    8 1.00
                 11720  0.00070964594651845
                  1759  0.0054672722921914
                 400.8   0.027823118610189
                 113.7    0.10474773971146
                 37.03    0.28292084635691
                 13.27    0.44849523869833
                 5.025    0.27081688521277
                 1.013    0.01545029160744
 s    8 1.00
                 11720  -0.00031444341168873
                  1759  -0.0024821376810179
                 400.8  -0.012316355381583
                 113.7  -0.050538917343672
                 37.03   -0.13938490331632
                 13.27   -0.32507749481778
                 5.025   -0.22984830758785
                 1.013     1.0953793467883
 s    1 1.00
                0.3023                   1
 p    3 1.00
                  17.7   0.062679166281506
                 3.854    0.33353656587936
                 1.046    0.74123964163973
 p    1 1.00
                0.2753                   1
 d    1 1.00
                 1.185                   1

10 0
 s    8 1.00
                  6665  0.00069158396281299
                  1000  0.0053257961529341
                   228   0.027060721042034
                 64.71    0.10165684614077
                 21.06     0.2745748236174
                 7.495    0.44829431892377
                 2.797    0.28490261071525
                0.5215   0.015194859206082
 s    8 1.00
                  6665  -0.00029326965268655
                  1000  -0.0023180354739745
                   228  -0.011499786038565
                 64.71  -0.046826727009787
                 21.06   -0.12846616875047
                 7.495   -0.30126627246289
                 2.797   -0.25563070233011
                0.5215      1.093793361012
 s    1 1.00
                0.1596                   1
 p    3 1.00
                 9.439   0.056979251590039
                 2.002    0.31320721150073
                0.5456    0.76037674173753
 p    1 1.00
                0.1517                   1
 d    1 1.00
                  0.55                   1

11 0
 s    8 1.00
                 11720  0.00070964594651845
                  1759  0.0054672722921914
                 400.8   0.027823118610189
                 113.7    0.10474773971146
                 37.03    0.28292084635691
                 13.27    0.44849523869833
                 5.025    0.27081688521277
                 1.013    0.01545029160744
 s    8 1.00
                 11720  -0.00031444341168873
                  1759  -0.0024821376810179
                 400.8  -0.012316355381583
                 113.7  -0.050538917343672
                 37.03   -0.13938490331632
                 13.27   -0.32507749481778
                 5.025   -0.22984830758785
                 1.013     1.0953793467883
 s    1 1.00
                0.3023                   1
 p    3 1.00
                  17.7   0.062679166281506
                 3.854    0.33353656587936
                 1.046    0.74123964163973
 p    1 1.00
                0.2753                   1
 d    1 1.00
                 1.185                   1

12 0
 s    3 1.00
                 13.01   0.033498726389998
                 1.962    0.23480080117413
                0.4446     0.8136829578829
 s    1 1.00
                 0.122                   1
 p    1 1.00
                 0.727                   1

13 0
 s    3 1.00
                 13.01   0.033498726389998
                 1.962    0.23480080117413
                0.4446     0.8136829578829
 s    1 1.00
                 0.122                   1
 p    1 1.00
                 0.727                   1

14 0
 s    3 1.00
                 13.01   0.033498726389998
                 1.962    0.23480080117413
                0.4446     0.8136829578829
 s    1 1.00
                 0.122                   1
 p    1 1.00
                 0.727                   1

15 0
 s    3 1.00
                 13.01   0.033498726389998
                 1.962    0.23480080117413
                0.4446     0.8136829578829
 s    1 1.00
                 0.122                   1
 p    1 1.00
                 0.727                   1

16 0
 s    8 1.00
                 11720  0.00070964594651845
                  1759  0.0054672722921914
                 400.8   0.027823118610189
                 113.7    0.10474773971146
                 37.03    0.28292084635691
                 13.27    0.44849523869833
                 5.025    0.27081688521277
                 1.013    0.01545029160744
 s    8 1.00
                 11720  -0.00031444341168873
                  1759  -0.0024821376810179
                 400.8  -0.012316355381583
                 113.7  -0.050538917343672
                 37.03   -0.13938490331632
                 13.27   -0.32507749481778
                 5.025   -0.22984830758785
                 1.013     1.0953793467883
 s    1 1.00
                0.3023                   1
 p    3 1.00
                  17.7   0.062679166281506
                 3.854    0.33353656587936
                 1.046    0.74123964163973
 p    1 1.00
                0.2753                   1
 d    1 1.00
                 1.185                   1

17 0
 s    3 1.00
                 13.01   0.033498726389998
                 1.962    0.23480080117413
                0.4446     0.8136829578829
 s    1 1.00
                 0.122                   1
 p    1 1.00
                 0.727                   1

18 0
 s    3 1.00
                 13.01   0.033498726389998
                 1.962    0.23480080117413
                0.4446     0.8136829578829
 s    1 1.00
                 0.122                   1
 p    1 1.00
                 0.727                   1

19 0
 s    3 1.00
                 13.01   0.033498726389998
                 1.962    0.23480080117413
                0.4446     0.8136829578829
 s    1 1.00
                 0.122                   1
 p    1 1.00
                 0.727                   1

20 0
 s    3 1.00
                 13.01   0.033498726389998
                 1.962    0.23480080117413
                0.4446     0.8136829578829
 s    1 1.00
                 0.122                   1
 p    1 1.00
                 0.727                   1

21 0
 s    3 1.00
                 13.01   0.033498726389998
                 1.962    0.23480080117413
                0.4446     0.8136829578829
 s    1 1.00
                 0.122                   1
 p    1 1.00
                 0.727                   1

22 0
 s    3 1.00
                 13.01   0.033498726389998
                 1.962    0.23480080117413
                0.4446     0.8136829578829
 s    1 1.00
                 0.122                   1
 p    1 1.00
                 0.727                   1

23 0
 s    3 1.00
                 13.01   0.033498726389998
                 1.962    0.23480080117413
                0.4446     0.8136829578829
 s    1 1.00
                 0.122                   1
 p    1 1.00
                 0.727                   1

24 0
 s    3 1.00
                 13.01   0.033498726389998
                 1.962    0.23480080117413
                0.4446     0.8136829578829
 s    1 1.00
                 0.122                   1
 p    1 1.00
                 0.727                   1

[5d]
[7f]
[9g]

[MO]
 Sym= A
 Ene=     -20.5892274
 Spin= Alpha
 Occup=    2.00000
   1    -0.00097162201777394
   2    -0.00023013392489768
   3     0.017547208249692
   4    -0.0020206807548678
   5    0.00097681944166213
   6    0.0004174711923159
   7    -0.0025923152270522
   8    0.00063942532164053
   9    0.0090948667740853
  10    0.00020749155237222
  11    -0.00036499843687346
  12    0.00031905592326153
  13    0.00052193571510706
  14    -0.0002845862166451
  15    -0.00065148562984963
  16    -0.0068769708900108
  17     -0.01086605554895
  18     0.011149457878502
  19    0.0014535058156729
  20    0.0025077830046779
  21    -0.0075441773194418
  22     0.019154457195128
  23    -0.001864960967194
  24    0.0011069039420562
  25    0.00034319442569941
  26    0.0011068382232724
  27    -0.00089841190038879
  28    -7.7655137585661e-05
  29    -0.00076394895483225
  30    -0.025570192127928
  31    -0.043427508697657
  32     0.038779160604721
  33     -0.01693115152932
  34    -0.005935711897889
  35     0.030752751058387
  36    -0.028146767674117
  37    -0.00082068644140047
  38    0.0094081998655225
  39    -0.018946356903275
  40     0.002676255755714
  41    0.0037526019214988
  42    0.0092311724984604
  43    8.6197560226012e-05
  44     0.014045496989758
  45     0.056744185683465
  46    -0.0079977058868967
  47    -0.0064132029605833
  48     0.023693641725289
  49     0.016669680277805
  50    -0.0074026311906218
  51     0.013263630469174
  52    -0.00067088227153484
  53    0.00019254366245024
  54    0.0013332325851823
  55    0.00031584626559136
  56    0.00050996094342232
  57    0.0015693550486739
  58    -0.0015171973937308
  59    -0.035772708604196
  60    0.0083769401990139
  61    -0.0026783104091782
  62    -0.0014692043282313
  63     0.022044220045673
  64    -0.012457653728266
  65    -0.008536290497767
  66    0.0017825078539031
  67    -0.0019602113071219
  68    -0.00049697259513454
  69    -0.00066319935171086
  70    0.0015739235383315
  71    -0.00045561518898034
  72    -0.0013240947788309
  73    0.0038918769734094
  74     0.001442898755238
  75    0.00042156600675019
  76    7.6338393250326e-05
  77    -0.0016169465219752
  78    0.00056621201172605
  79    -0.0015137325755229
  80    0.00010455423380527
  81    -2.2954603906756e-05
  82    0.00012200174384676
  83    -2.5794786313951e-05
  84       1.660351672e-05
  85    -0.00096257593064439
  86    -0.0026619504300636
  87    0.0031466956196232
  88    0.0045843020099749
  89    -0.0014865333222131
  90    0.00038009754425139
  91    0.0022652610530624
  92    -0.0017259398156793
  93    -0.0049209347505396
  94    -0.00041069505801181
  95    0.00029917174938405
  96    -4.1777401003134e-05
  97    0.00074625062528236
  98    -0.00019529832150672
  99    -0.0056541238893629
 100      0.22746724320526
 101      0.14535396940804
 102     -0.12709830885335
 103      -0.1250019759589
 104      0.38138323500525
 105    -0.047981209714322
 106    -0.063371709759076
 107      0.17721657496825
 108     0.012786414571282
 109    0.00028463363986753
 110    -0.011827204864763
 111    -0.0043997606603549
 112    0.0023603414178868
 113    -0.0010095519275029
 114    0.00059304827206798
 115      0.01247015403649
 116    -0.0024283856433071
 117    0.0021219625218831
 118    0.0025117085075266
 119    -0.0077252135171873
 120     0.003834028595137
 121    0.0030173238210835
 122    0.00025459010755083
 123    0.00019868464339935
 124    0.00016945343385231
 125    -6.8078775391154e-05
 126    -0.00020708254945044
 127    0.00048419672213958
 128     0.002554958666281
 129    0.0023690150911702
 130    -0.0014763868765334
 131    -0.00095297106732049
 132    0.0030687299826413
 133    -0.00087236142326829
 134    0.0025763258107213
 135    0.0026892104024949
 136    -6.3020028226636e-05
 137    0.00032781628031807
 138    0.0002000732362187
 139    -0.00020735036412477
 140    5.8183596177378e-06
 141    -6.3125852453002e-05
 142    1.6311839842298e-05
 143    0.00049668223972785
 144    -0.00033719844967413
 145    0.00010264665613659
 146    8.8831198378047e-05
 147    0.0009599866803378
 148    0.00014623963205575
 149    0.00080936009868311
 150    9.4829298057734e-05
 151    5.4254327150264e-05
 152    7.9896456112702e-06
 153    -5.0219439711072e-05
 154    -3.611182683641e-05
 155    0.0038313884986532
 156    0.0021989031151583
 157    0.00019193161442289
 158    -0.00013360253262379
 159    -0.00076898038472371
 160      0.41523594401014
 161     0.066325296911298
 162     0.018388110901522
 163      0.01781490363836
 164    -0.056222681406472
 165    -0.00031885654666754
 166    0.0030472239177096
 167    0.00012544054185518
 168    2.3099999282794e-05
 169    0.00010073375477275
 170    -0.0040940800239402
 171     -0.01190027418594
 172    -0.00070402497895029
 173    0.00034271085242944
 174    -0.00095121819767695
 175    0.00038009697783933
 176    0.00036586524436807
 177    -0.0054289847498099
 178    0.00090154071126817
 179    -0.00019203817298092
 180    -6.0180851742179e-06
 181    0.0025010623846847
 182    0.0014403586176195
 183    0.00058566893866703
 184    3.1488225591063e-06
 185    -7.3466736773017e-05
 186    -5.2214755952535e-05
 187    -2.0756689200532e-05
 188    -6.6663417571507e-05
 189    -0.00050515494602811
 190    -0.00019684451182336
 191    5.1952033290565e-05
 192    3.5795215007145e-05
 193    5.9079686250961e-06
 194    -0.00012534834492588
 195    -0.0019434740642399
 196    -0.00021994525399921
 197    -2.3867778013668e-05
 198    -0.00037718949138051
 199    -0.0034369058320651
 200    -0.0071333122632806
 201    0.00083125857558615
 202    0.00054418960726185
 203    0.00010798613248537
 204    -0.012239311996644
 205    -0.011636491332489
 206    0.00098922891003776
 207    0.00036714438096962
 208    -0.00035839488416664
 209      0.00369165450981
 210    -0.0036758407627442
 211    -0.0010897898722967
 212    -0.0007063031908308
 213    0.00054147717666569
 214    -0.00046990177303638
 215    -0.0032437138845155
 216    0.00010513464670853
 217    1.1680268392596e-05
 218    8.1066559858389e-05
 219    0.00076073810024837
 220    -0.00030845765233893
 221    -0.00015132756654514
 222    -0.00015084974761953
 223    0.00020068857902337
 224    -0.0016108549906964
 225    -0.0042066598205746
 226    0.00012687594054212
 227    -0.00020070204750388
 228    -9.4906035736212e-05
