[Molden Format]
made by pyscf v[2.1.0]
[Atoms] (AU)
C   1   6     2.32946917320360    -0.63344186613258     2.37168943427863
C   2   6    -0.29669267073509     0.30039086476086     3.22269546913239
C   3   6    -2.28836574026819    -0.45088865332122     1.27613394164491
C   4   6    -1.50258360260379     0.48150977544368    -1.34195877174189
C   5   6     1.17077037184366    -0.47613539434541    -1.98531603085006
O   6   8     2.90615122545875     0.36947547242271    -0.06380660259594
O   7   8    -1.02480036707776    -0.78170410868758     5.58840958940515
O   8   8    -4.71990091118567     0.61286652808832     1.81907682367207
O   9   8    -3.21856263809797    -0.39246777018029    -3.24986406162526
C   10   6     2.14873576665020     0.54311106765225    -4.52137384344336
O   11   8     0.97527064535291    -0.64120108160005    -6.63217335814292
H   12   1     0.34900595904142    -0.48214283369541     6.76077111064570
H   13   1    -5.19719092819319     0.02690592056156     3.48444332437202
H   14   1    -0.83535721281623    -0.49952075513691    -6.37469817367093
H   15   1    -4.90002393620084     0.08874342853570    -2.71063260170675
O   16   8     4.22615893853768     0.10859122202201     4.07505454789134
H   17   1     4.38166639105427     1.93178575891951     3.94362220620171
H   18   1     2.36505838530753    -2.71537014510103     2.34202262384909
H   19   1    -0.22188597236806     2.38358526023277     3.34538215831753
H   20   1    -2.40897751016855    -2.53158672058258     1.22868291865708
H   21   1    -1.45404220764209     2.56502731408288    -1.31752650267738
H   22   1     1.14953551938192    -2.55944317338479    -2.06041941621865
H   23   1     1.89192576577406     2.61534694132780    -4.54974430175146
H   24   1     4.17463555575142     0.13656105839169    -4.65046670419078
[GTO]
1 0
 s    8 1.00
                  6665  0.00069158396281299
                  1000  0.0053257961529341
                   228   0.027060721042034
                 64.71    0.10165684614077
                 21.06     0.2745748236174
                 7.495    0.44829431892377
                 2.797    0.28490261071525
                0.5215   0.015194859206082
 s    8 1.00
                  6665  -0.00029326965268655
                  1000  -0.0023180354739745
                   228  -0.011499786038565
                 64.71  -0.046826727009787
                 21.06   -0.12846616875047
                 7.495   -0.30126627246289
                 2.797   -0.25563070233011
                0.5215      1.093793361012
 s    1 1.00
                0.1596                   1
 p    3 1.00
                 9.439   0.056979251590039
                 2.002    0.31320721150073
                0.5456    0.76037674173753
 p    1 1.00
                0.1517                   1
 d    1 1.00
                  0.55                   1

2 0
 s    8 1.00
                  6665  0.00069158396281299
                  1000  0.0053257961529341
                   228   0.027060721042034
                 64.71    0.10165684614077
                 21.06     0.2745748236174
                 7.495    0.44829431892377
                 2.797    0.28490261071525
                0.5215   0.015194859206082
 s    8 1.00
                  6665  -0.00029326965268655
                  1000  -0.0023180354739745
                   228  -0.011499786038565
                 64.71  -0.046826727009787
                 21.06   -0.12846616875047
                 7.495   -0.30126627246289
                 2.797   -0.25563070233011
                0.5215      1.093793361012
 s    1 1.00
                0.1596                   1
 p    3 1.00
                 9.439   0.056979251590039
                 2.002    0.31320721150073
                0.5456    0.76037674173753
 p    1 1.00
                0.1517                   1
 d    1 1.00
                  0.55                   1

3 0
 s    8 1.00
                  6665  0.00069158396281299
                  1000  0.0053257961529341
                   228   0.027060721042034
                 64.71    0.10165684614077
                 21.06     0.2745748236174
                 7.495    0.44829431892377
                 2.797    0.28490261071525
                0.5215   0.015194859206082
 s    8 1.00
                  6665  -0.00029326965268655
                  1000  -0.0023180354739745
                   228  -0.011499786038565
                 64.71  -0.046826727009787
                 21.06   -0.12846616875047
                 7.495   -0.30126627246289
                 2.797   -0.25563070233011
                0.5215      1.093793361012
 s    1 1.00
                0.1596                   1
 p    3 1.00
                 9.439   0.056979251590039
                 2.002    0.31320721150073
                0.5456    0.76037674173753
 p    1 1.00
                0.1517                   1
 d    1 1.00
                  0.55                   1

4 0
 s    8 1.00
                  6665  0.00069158396281299
                  1000  0.0053257961529341
                   228   0.027060721042034
                 64.71    0.10165684614077
                 21.06     0.2745748236174
                 7.495    0.44829431892377
                 2.797    0.28490261071525
                0.5215   0.015194859206082
 s    8 1.00
                  6665  -0.00029326965268655
                  1000  -0.0023180354739745
                   228  -0.011499786038565
                 64.71  -0.046826727009787
                 21.06   -0.12846616875047
                 7.495   -0.30126627246289
                 2.797   -0.25563070233011
                0.5215      1.093793361012
 s    1 1.00
                0.1596                   1
 p    3 1.00
                 9.439   0.056979251590039
                 2.002    0.31320721150073
                0.5456    0.76037674173753
 p    1 1.00
                0.1517                   1
 d    1 1.00
                  0.55                   1

5 0
 s    8 1.00
                  6665  0.00069158396281299
                  1000  0.0053257961529341
                   228   0.027060721042034
                 64.71    0.10165684614077
                 21.06     0.2745748236174
                 7.495    0.44829431892377
                 2.797    0.28490261071525
                0.5215   0.015194859206082
 s    8 1.00
                  6665  -0.00029326965268655
                  1000  -0.0023180354739745
                   228  -0.011499786038565
                 64.71  -0.046826727009787
                 21.06   -0.12846616875047
                 7.495   -0.30126627246289
                 2.797   -0.25563070233011
                0.5215      1.093793361012
 s    1 1.00
                0.1596                   1
 p    3 1.00
                 9.439   0.056979251590039
                 2.002    0.31320721150073
                0.5456    0.76037674173753
 p    1 1.00
                0.1517                   1
 d    1 1.00
                  0.55                   1

6 0
 s    8 1.00
                 11720  0.00070964594651845
                  1759  0.0054672722921914
                 400.8   0.027823118610189
                 113.7    0.10474773971146
                 37.03    0.28292084635691
                 13.27    0.44849523869833
                 5.025    0.27081688521277
                 1.013    0.01545029160744
 s    8 1.00
                 11720  -0.00031444341168873
                  1759  -0.0024821376810179
                 400.8  -0.012316355381583
                 113.7  -0.050538917343672
                 37.03   -0.13938490331632
                 13.27   -0.32507749481778
                 5.025   -0.22984830758785
                 1.013     1.0953793467883
 s    1 1.00
                0.3023                   1
 p    3 1.00
                  17.7   0.062679166281506
                 3.854    0.33353656587936
                 1.046    0.74123964163973
 p    1 1.00
                0.2753                   1
 d    1 1.00
                 1.185                   1

7 0
 s    8 1.00
                 11720  0.00070964594651845
                  1759  0.0054672722921914
                 400.8   0.027823118610189
                 113.7    0.10474773971146
                 37.03    0.28292084635691
                 13.27    0.44849523869833
                 5.025    0.27081688521277
                 1.013    0.01545029160744
 s    8 1.00
                 11720  -0.00031444341168873
                  1759  -0.0024821376810179
                 400.8  -0.012316355381583
                 113.7  -0.050538917343672
                 37.03   -0.13938490331632
                 13.27   -0.32507749481778
                 5.025   -0.22984830758785
                 1.013     1.0953793467883
 s    1 1.00
                0.3023                   1
 p    3 1.00
                  17.7   0.062679166281506
                 3.854    0.33353656587936
                 1.046    0.74123964163973
 p    1 1.00
                0.2753                   1
 d    1 1.00
                 1.185                   1

8 0
 s    8 1.00
                 11720  0.00070964594651845
                  1759  0.0054672722921914
                 400.8   0.027823118610189
                 113.7    0.10474773971146
                 37.03    0.28292084635691
                 13.27    0.44849523869833
                 5.025    0.27081688521277
                 1.013    0.01545029160744
 s    8 1.00
                 11720  -0.00031444341168873
                  1759  -0.0024821376810179
                 400.8  -0.012316355381583
                 113.7  -0.050538917343672
                 37.03   -0.13938490331632
                 13.27   -0.32507749481778
                 5.025   -0.22984830758785
                 1.013     1.0953793467883
 s    1 1.00
                0.3023                   1
 p    3 1.00
                  17.7   0.062679166281506
                 3.854    0.33353656587936
                 1.046    0.74123964163973
 p    1 1.00
                0.2753                   1
 d    1 1.00
                 1.185                   1

9 0
 s    8 1.00
                 11720  0.00070964594651845
                  1759  0.0054672722921914
                 400.8   0.027823118610189
                 113.7    0.10474773971146
                 37.03    0.28292084635691
                 13.27    0.44849523869833
                 5.025    0.27081688521277
                 1.013    0.01545029160744
 s    8 1.00
                 11720  -0.00031444341168873
                  1759  -0.0024821376810179
                 400.8  -0.012316355381583
                 113.7  -0.050538917343672
                 37.03   -0.13938490331632
                 13.27   -0.32507749481778
                 5.025   -0.22984830758785
                 1.013     1.0953793467883
 s    1 1.00
                0.3023                   1
 p    3 1.00
                  17.7   0.062679166281506
                 3.854    0.33353656587936
                 1.046    0.74123964163973
 p    1 1.00
                0.2753                   1
 d    1 1.00
                 1.185                   1

10 0
 s    8 1.00
                  6665  0.00069158396281299
                  1000  0.0053257961529341
                   228   0.027060721042034
                 64.71    0.10165684614077
                 21.06     0.2745748236174
                 7.495    0.44829431892377
                 2.797    0.28490261071525
                0.5215   0.015194859206082
 s    8 1.00
                  6665  -0.00029326965268655
                  1000  -0.0023180354739745
                   228  -0.011499786038565
                 64.71  -0.046826727009787
                 21.06   -0.12846616875047
                 7.495   -0.30126627246289
                 2.797   -0.25563070233011
                0.5215      1.093793361012
 s    1 1.00
                0.1596                   1
 p    3 1.00
                 9.439   0.056979251590039
                 2.002    0.31320721150073
                0.5456    0.76037674173753
 p    1 1.00
                0.1517                   1
 d    1 1.00
                  0.55                   1

11 0
 s    8 1.00
                 11720  0.00070964594651845
                  1759  0.0054672722921914
                 400.8   0.027823118610189
                 113.7    0.10474773971146
                 37.03    0.28292084635691
                 13.27    0.44849523869833
                 5.025    0.27081688521277
                 1.013    0.01545029160744
 s    8 1.00
                 11720  -0.00031444341168873
                  1759  -0.0024821376810179
                 400.8  -0.012316355381583
                 113.7  -0.050538917343672
                 37.03   -0.13938490331632
                 13.27   -0.32507749481778
                 5.025   -0.22984830758785
                 1.013     1.0953793467883
 s    1 1.00
                0.3023                   1
 p    3 1.00
                  17.7   0.062679166281506
                 3.854    0.33353656587936
                 1.046    0.74123964163973
 p    1 1.00
                0.2753                   1
 d    1 1.00
                 1.185                   1

12 0
 s    3 1.00
                 13.01   0.033498726389998
                 1.962    0.23480080117413
                0.4446     0.8136829578829
 s    1 1.00
                 0.122                   1
 p    1 1.00
                 0.727                   1

13 0
 s    3 1.00
                 13.01   0.033498726389998
                 1.962    0.23480080117413
                0.4446     0.8136829578829
 s    1 1.00
                 0.122                   1
 p    1 1.00
                 0.727                   1

14 0
 s    3 1.00
                 13.01   0.033498726389998
                 1.962    0.23480080117413
                0.4446     0.8136829578829
 s    1 1.00
                 0.122                   1
 p    1 1.00
                 0.727                   1

15 0
 s    3 1.00
                 13.01   0.033498726389998
                 1.962    0.23480080117413
                0.4446     0.8136829578829
 s    1 1.00
                 0.122                   1
 p    1 1.00
                 0.727                   1

16 0
 s    8 1.00
                 11720  0.00070964594651845
                  1759  0.0054672722921914
                 400.8   0.027823118610189
                 113.7    0.10474773971146
                 37.03    0.28292084635691
                 13.27    0.44849523869833
                 5.025    0.27081688521277
                 1.013    0.01545029160744
 s    8 1.00
                 11720  -0.00031444341168873
                  1759  -0.0024821376810179
                 400.8  -0.012316355381583
                 113.7  -0.050538917343672
                 37.03   -0.13938490331632
                 13.27   -0.32507749481778
                 5.025   -0.22984830758785
                 1.013     1.0953793467883
 s    1 1.00
                0.3023                   1
 p    3 1.00
                  17.7   0.062679166281506
                 3.854    0.33353656587936
                 1.046    0.74123964163973
 p    1 1.00
                0.2753                   1
 d    1 1.00
                 1.185                   1

17 0
 s    3 1.00
                 13.01   0.033498726389998
                 1.962    0.23480080117413
                0.4446     0.8136829578829
 s    1 1.00
                 0.122                   1
 p    1 1.00
                 0.727                   1

18 0
 s    3 1.00
                 13.01   0.033498726389998
                 1.962    0.23480080117413
                0.4446     0.8136829578829
 s    1 1.00
                 0.122                   1
 p    1 1.00
                 0.727                   1

19 0
 s    3 1.00
                 13.01   0.033498726389998
                 1.962    0.23480080117413
                0.4446     0.8136829578829
 s    1 1.00
                 0.122                   1
 p    1 1.00
                 0.727                   1

20 0
 s    3 1.00
                 13.01   0.033498726389998
                 1.962    0.23480080117413
                0.4446     0.8136829578829
 s    1 1.00
                 0.122                   1
 p    1 1.00
                 0.727                   1

21 0
 s    3 1.00
                 13.01   0.033498726389998
                 1.962    0.23480080117413
                0.4446     0.8136829578829
 s    1 1.00
                 0.122                   1
 p    1 1.00
                 0.727                   1

22 0
 s    3 1.00
                 13.01   0.033498726389998
                 1.962    0.23480080117413
                0.4446     0.8136829578829
 s    1 1.00
                 0.122                   1
 p    1 1.00
                 0.727                   1

23 0
 s    3 1.00
                 13.01   0.033498726389998
                 1.962    0.23480080117413
                0.4446     0.8136829578829
 s    1 1.00
                 0.122                   1
 p    1 1.00
                 0.727                   1

24 0
 s    3 1.00
                 13.01   0.033498726389998
                 1.962    0.23480080117413
                0.4446     0.8136829578829
 s    1 1.00
                 0.122                   1
 p    1 1.00
                 0.727                   1

[5d]
[7f]
[9g]

[MO]
 Sym= A
 Ene=     -20.5892274
 Spin= Alpha
 Occup=    2.00000
   1    -0.00025098411044973
   2    -3.3732444808953e-05
   3    -0.00035136134904773
   4    -0.00080003369699775
   5    0.00010933749606985
   6    -6.4605155186202e-05
   7    -0.0021871926227494
   8    -0.0016550073616227
   9    -0.0059523555493378
  10    0.00034124912840813
  11    -6.0145927945161e-05
  12    -0.0002012407720089
  13    -0.00052232138277643
  14    1.4236749412317e-05
  15    0.00041908428521399
  16    -0.001099955274546
  17    -0.014087832822749
  18    0.0016286069510937
  19    0.0010690458447414
  20    0.0018066223947659
  21     0.013042622720723
  22    0.00017987738578999
  23    -0.0016847964979673
  24    0.00035596081782177
  25    -0.00030029948090814
  26    -0.00012699921435802
  27    -0.00047696494356947
  28    -0.00040282373138776
  29    0.00058958429112784
  30    0.0078684130114128
  31       0.0145705359803
  32    -0.0028187386430334
  33    0.0024753413166243
  34    -0.012695147676842
  35    0.00033618169254128
  36     0.019537229691671
  37    0.0071167580207554
  38    0.0006384714668315
  39    0.00088315200619934
  40    0.00024473569096755
  41    -0.00010823416220803
  42    -0.0013837368080103
  43    0.00030723878772333
  44     0.024542457478434
  45      0.04654952594033
  46    -0.024061321311003
  47    -0.013932318301715
  48    -0.031665760734091
  49    -0.0096882976219021
  50    -0.025856385430445
  51    -0.028156116692776
  52     0.015037786322184
  53    -0.0034784031614901
  54    0.0080246508253475
  55    -0.015289551117411
  56     0.001980495317548
  57    -0.0010696192544336
  58    -0.017811238536111
  59    -0.038817974762062
  60     0.020911770444117
  61    -0.0086683506716106
  62    -0.0065870108801966
  63      0.01588511250166
  64    -0.0049827465288935
  65    -0.019577531619802
  66    0.00031636558034149
  67    -0.00011350220296533
  68    0.0011239653092678
  69    0.00027567500514542
  70    -0.00072496848138038
  71    -0.00048505005728195
  72    0.0024167525290359
  73     0.012847192685569
  74    -0.0070187914255171
  75    -0.0013222809623173
  76    -0.0038876567312871
  77    -0.010770529768994
  78    -0.0012573339764334
  79    -0.0078818344686819
  80    0.00037819640838568
  81    -0.00012810565897189
  82    0.00045152954375251
  83    -0.00048569699599219
  84    0.00025616942395603
  85    -0.000446871171573
  86    -0.0003091041489559
  87    0.0063107723121199
  88    -0.00024211234510751
  89    0.0001869322698383
  90    -0.0007044512559401
  91    -8.5629953806543e-05
  92     0.001545204722216
  93    -0.0021018205598327
  94    -1.7146634595126e-05
  95    3.5420571587359e-06
  96    -4.3450352765579e-05
  97    -4.5963083488773e-05
  98    2.2061978455418e-05
  99     0.001185827696346
 100    0.0033963984137996
 101    -0.0042704119877175
 102    -0.0018826952997741
 103    -0.0016501783335477
 104    -0.005412775794555
 105    -0.0057888329602879
 106    -0.0018711693796801
 107    -0.0016664296903314
 108    -0.0011458119805364
 109    -0.00048797636995172
 110    -4.2388086663664e-05
 111    -6.6690873176859e-05
 112    -5.7181027701782e-05
 113    0.0053368553407206
 114     -0.22947806534116
 115     -0.14646926942288
 116      0.39398477031076
 117     -0.10354797367655
 118     -0.10807399198299
 119      0.17935263249633
 120    -0.051837402550562
 121      -0.0579766975771
 122    0.0027050895894331
 123     0.013083790821038
 124    -0.003819744404774
 125    -0.0057751440349894
 126    0.0093725266638387
 127    0.0006609701910572
 128    -0.00026519249295018
 129    -0.012463058243283
 130    0.0026741616461818
 131    0.00019127418271558
 132    -0.0010555180936253
 133    0.0041200780915867
 134    0.0039021190665443
 135    -0.0018503684553578
 136    -0.00027499331750447
 137    0.0010028936193519
 138    -0.00013216494170565
 139    0.00013408783525648
 140    -0.00028595341938483
 141    0.00027114009852543
 142    -0.0022359101842133
 143    -0.0086050809170159
 144    0.0046836479181755
 145    -0.00057446125990106
 146    -0.0029837056642533
 147    0.0083283450865734
 148    0.0001600364133733
 149    -9.3994239118223e-05
 150    5.4270887424436e-05
 151    -0.00016205809455611
 152    -0.00013500516229363
 153    3.8851653966391e-05
 154    4.1577500864107e-05
 155    -0.0013119254532254
 156    0.00012105734149071
 157    0.00017024681609894
 158    -6.2918341645766e-05
 159    0.00015137389028989
 160    -0.0035413697871472
 161    -0.0017066194955142
 162    -0.00072634176098076
 163    -0.0001682323198141
 164    -0.00026110228517453
 165     0.004917360542612
 166     0.015952973818504
 167    -0.00047693850136111
 168    -0.00016893794754932
 169    0.0016896612578878
 170      -0.4127699732226
 171    -0.063027288572287
 172    -0.058265023691509
 173     0.014566632797265
 174     0.016342717738757
 175    -0.00022373064189363
 176    -0.00017823970406825
 177    0.0032349925276308
 178    0.0001337231173795
 179    0.00016574556792412
 180    -0.00052895426845928
 181    -0.000301207771148
 182    -0.00068738905796111
 183    -0.0010845774051239
 184    -4.2161590836069e-05
 185    6.7975630236975e-05
 186    1.7165501588934e-05
 187    -1.0699227454859e-05
 188    4.5720785923588e-05
 189    0.00041162405423498
 190    -0.00056105588795457
 191    7.4961279432396e-05
 192    2.8492322060807e-05
 193    1.5191835842178e-05
 194    -4.4487675768269e-05
 195    5.1402665193617e-05
 196    0.00013835329581414
 197    4.7647684373023e-06
 198    0.00022587980324309
 199    -8.1231137268612e-05
 200    0.0025290623433678
 201    -0.00035551901028627
 202    -0.00013606198103321
 203    0.00030784335189775
 204    0.0040897127623999
 205    0.0066310769167867
 206    -0.00014330171335298
 207    0.00059723129377871
 208    -0.00067794204905799
 209    0.0098590985169438
 210     0.011587446077868
 211    -0.0009920457706793
 212    0.00024918742958691
 213    -0.00058450132127943
 214    -0.0025387150628047
 215    0.0059828380664908
 216    0.00042966080125873
 217    -0.00056005087724332
 218    0.00040451792267669
 219    0.0010750119257881
 220    0.00031536663338022
 221    -1.4763762895773e-05
 222    -5.9975722167486e-05
 223    -6.6109615457448e-05
 224    0.00038522285560363
 225    -0.0031498781232172
 226    -0.00015767688349455
 227    -0.00021809271882644
 228    -4.5497618795828e-05
