[Molden Format]
made by pyscf v[2.1.0]
[Atoms] (AU)
C   1   6     2.32946917320360    -0.63344186613258     2.37168943427863
C   2   6    -0.29669267073509     0.30039086476086     3.22269546913239
C   3   6    -2.28836574026819    -0.45088865332122     1.27613394164491
C   4   6    -1.50258360260379     0.48150977544368    -1.34195877174189
C   5   6     1.17077037184366    -0.47613539434541    -1.98531603085006
O   6   8     2.90615122545875     0.36947547242271    -0.06380660259594
O   7   8    -1.02480036707776    -0.78170410868758     5.58840958940515
O   8   8    -4.71990091118567     0.61286652808832     1.81907682367207
O   9   8    -3.21856263809797    -0.39246777018029    -3.24986406162526
C   10   6     2.14873576665020     0.54311106765225    -4.52137384344336
O   11   8     0.97527064535291    -0.64120108160005    -6.63217335814292
H   12   1     0.34900595904142    -0.48214283369541     6.76077111064570
H   13   1    -5.19719092819319     0.02690592056156     3.48444332437202
H   14   1    -0.83535721281623    -0.49952075513691    -6.37469817367093
H   15   1    -4.90002393620084     0.08874342853570    -2.71063260170675
O   16   8     4.22615893853768     0.10859122202201     4.07505454789134
H   17   1     4.38166639105427     1.93178575891951     3.94362220620171
H   18   1     2.36505838530753    -2.71537014510103     2.34202262384909
H   19   1    -0.22188597236806     2.38358526023277     3.34538215831753
H   20   1    -2.40897751016855    -2.53158672058258     1.22868291865708
H   21   1    -1.45404220764209     2.56502731408288    -1.31752650267738
H   22   1     1.14953551938192    -2.55944317338479    -2.06041941621865
H   23   1     1.89192576577406     2.61534694132780    -4.54974430175146
H   24   1     4.17463555575142     0.13656105839169    -4.65046670419078
[GTO]
1 0
 s    8 1.00
                  6665  0.00069158396281299
                  1000  0.0053257961529341
                   228   0.027060721042034
                 64.71    0.10165684614077
                 21.06     0.2745748236174
                 7.495    0.44829431892377
                 2.797    0.28490261071525
                0.5215   0.015194859206082
 s    8 1.00
                  6665  -0.00029326965268655
                  1000  -0.0023180354739745
                   228  -0.011499786038565
                 64.71  -0.046826727009787
                 21.06   -0.12846616875047
                 7.495   -0.30126627246289
                 2.797   -0.25563070233011
                0.5215      1.093793361012
 s    1 1.00
                0.1596                   1
 p    3 1.00
                 9.439   0.056979251590039
                 2.002    0.31320721150073
                0.5456    0.76037674173753
 p    1 1.00
                0.1517                   1
 d    1 1.00
                  0.55                   1

2 0
 s    8 1.00
                  6665  0.00069158396281299
                  1000  0.0053257961529341
                   228   0.027060721042034
                 64.71    0.10165684614077
                 21.06     0.2745748236174
                 7.495    0.44829431892377
                 2.797    0.28490261071525
                0.5215   0.015194859206082
 s    8 1.00
                  6665  -0.00029326965268655
                  1000  -0.0023180354739745
                   228  -0.011499786038565
                 64.71  -0.046826727009787
                 21.06   -0.12846616875047
                 7.495   -0.30126627246289
                 2.797   -0.25563070233011
                0.5215      1.093793361012
 s    1 1.00
                0.1596                   1
 p    3 1.00
                 9.439   0.056979251590039
                 2.002    0.31320721150073
                0.5456    0.76037674173753
 p    1 1.00
                0.1517                   1
 d    1 1.00
                  0.55                   1

3 0
 s    8 1.00
                  6665  0.00069158396281299
                  1000  0.0053257961529341
                   228   0.027060721042034
                 64.71    0.10165684614077
                 21.06     0.2745748236174
                 7.495    0.44829431892377
                 2.797    0.28490261071525
                0.5215   0.015194859206082
 s    8 1.00
                  6665  -0.00029326965268655
                  1000  -0.0023180354739745
                   228  -0.011499786038565
                 64.71  -0.046826727009787
                 21.06   -0.12846616875047
                 7.495   -0.30126627246289
                 2.797   -0.25563070233011
                0.5215      1.093793361012
 s    1 1.00
                0.1596                   1
 p    3 1.00
                 9.439   0.056979251590039
                 2.002    0.31320721150073
                0.5456    0.76037674173753
 p    1 1.00
                0.1517                   1
 d    1 1.00
                  0.55                   1

4 0
 s    8 1.00
                  6665  0.00069158396281299
                  1000  0.0053257961529341
                   228   0.027060721042034
                 64.71    0.10165684614077
                 21.06     0.2745748236174
                 7.495    0.44829431892377
                 2.797    0.28490261071525
                0.5215   0.015194859206082
 s    8 1.00
                  6665  -0.00029326965268655
                  1000  -0.0023180354739745
                   228  -0.011499786038565
                 64.71  -0.046826727009787
                 21.06   -0.12846616875047
                 7.495   -0.30126627246289
                 2.797   -0.25563070233011
                0.5215      1.093793361012
 s    1 1.00
                0.1596                   1
 p    3 1.00
                 9.439   0.056979251590039
                 2.002    0.31320721150073
                0.5456    0.76037674173753
 p    1 1.00
                0.1517                   1
 d    1 1.00
                  0.55                   1

5 0
 s    8 1.00
                  6665  0.00069158396281299
                  1000  0.0053257961529341
                   228   0.027060721042034
                 64.71    0.10165684614077
                 21.06     0.2745748236174
                 7.495    0.44829431892377
                 2.797    0.28490261071525
                0.5215   0.015194859206082
 s    8 1.00
                  6665  -0.00029326965268655
                  1000  -0.0023180354739745
                   228  -0.011499786038565
                 64.71  -0.046826727009787
                 21.06   -0.12846616875047
                 7.495   -0.30126627246289
                 2.797   -0.25563070233011
                0.5215      1.093793361012
 s    1 1.00
                0.1596                   1
 p    3 1.00
                 9.439   0.056979251590039
                 2.002    0.31320721150073
                0.5456    0.76037674173753
 p    1 1.00
                0.1517                   1
 d    1 1.00
                  0.55                   1

6 0
 s    8 1.00
                 11720  0.00070964594651845
                  1759  0.0054672722921914
                 400.8   0.027823118610189
                 113.7    0.10474773971146
                 37.03    0.28292084635691
                 13.27    0.44849523869833
                 5.025    0.27081688521277
                 1.013    0.01545029160744
 s    8 1.00
                 11720  -0.00031444341168873
                  1759  -0.0024821376810179
                 400.8  -0.012316355381583
                 113.7  -0.050538917343672
                 37.03   -0.13938490331632
                 13.27   -0.32507749481778
                 5.025   -0.22984830758785
                 1.013     1.0953793467883
 s    1 1.00
                0.3023                   1
 p    3 1.00
                  17.7   0.062679166281506
                 3.854    0.33353656587936
                 1.046    0.74123964163973
 p    1 1.00
                0.2753                   1
 d    1 1.00
                 1.185                   1

7 0
 s    8 1.00
                 11720  0.00070964594651845
                  1759  0.0054672722921914
                 400.8   0.027823118610189
                 113.7    0.10474773971146
                 37.03    0.28292084635691
                 13.27    0.44849523869833
                 5.025    0.27081688521277
                 1.013    0.01545029160744
 s    8 1.00
                 11720  -0.00031444341168873
                  1759  -0.0024821376810179
                 400.8  -0.012316355381583
                 113.7  -0.050538917343672
                 37.03   -0.13938490331632
                 13.27   -0.32507749481778
                 5.025   -0.22984830758785
                 1.013     1.0953793467883
 s    1 1.00
                0.3023                   1
 p    3 1.00
                  17.7   0.062679166281506
                 3.854    0.33353656587936
                 1.046    0.74123964163973
 p    1 1.00
                0.2753                   1
 d    1 1.00
                 1.185                   1

8 0
 s    8 1.00
                 11720  0.00070964594651845
                  1759  0.0054672722921914
                 400.8   0.027823118610189
                 113.7    0.10474773971146
                 37.03    0.28292084635691
                 13.27    0.44849523869833
                 5.025    0.27081688521277
                 1.013    0.01545029160744
 s    8 1.00
                 11720  -0.00031444341168873
                  1759  -0.0024821376810179
                 400.8  -0.012316355381583
                 113.7  -0.050538917343672
                 37.03   -0.13938490331632
                 13.27   -0.32507749481778
                 5.025   -0.22984830758785
                 1.013     1.0953793467883
 s    1 1.00
                0.3023                   1
 p    3 1.00
                  17.7   0.062679166281506
                 3.854    0.33353656587936
                 1.046    0.74123964163973
 p    1 1.00
                0.2753                   1
 d    1 1.00
                 1.185                   1

9 0
 s    8 1.00
                 11720  0.00070964594651845
                  1759  0.0054672722921914
                 400.8   0.027823118610189
                 113.7    0.10474773971146
                 37.03    0.28292084635691
                 13.27    0.44849523869833
                 5.025    0.27081688521277
                 1.013    0.01545029160744
 s    8 1.00
                 11720  -0.00031444341168873
                  1759  -0.0024821376810179
                 400.8  -0.012316355381583
                 113.7  -0.050538917343672
                 37.03   -0.13938490331632
                 13.27   -0.32507749481778
                 5.025   -0.22984830758785
                 1.013     1.0953793467883
 s    1 1.00
                0.3023                   1
 p    3 1.00
                  17.7   0.062679166281506
                 3.854    0.33353656587936
                 1.046    0.74123964163973
 p    1 1.00
                0.2753                   1
 d    1 1.00
                 1.185                   1

10 0
 s    8 1.00
                  6665  0.00069158396281299
                  1000  0.0053257961529341
                   228   0.027060721042034
                 64.71    0.10165684614077
                 21.06     0.2745748236174
                 7.495    0.44829431892377
                 2.797    0.28490261071525
                0.5215   0.015194859206082
 s    8 1.00
                  6665  -0.00029326965268655
                  1000  -0.0023180354739745
                   228  -0.011499786038565
                 64.71  -0.046826727009787
                 21.06   -0.12846616875047
                 7.495   -0.30126627246289
                 2.797   -0.25563070233011
                0.5215      1.093793361012
 s    1 1.00
                0.1596                   1
 p    3 1.00
                 9.439   0.056979251590039
                 2.002    0.31320721150073
                0.5456    0.76037674173753
 p    1 1.00
                0.1517                   1
 d    1 1.00
                  0.55                   1

11 0
 s    8 1.00
                 11720  0.00070964594651845
                  1759  0.0054672722921914
                 400.8   0.027823118610189
                 113.7    0.10474773971146
                 37.03    0.28292084635691
                 13.27    0.44849523869833
                 5.025    0.27081688521277
                 1.013    0.01545029160744
 s    8 1.00
                 11720  -0.00031444341168873
                  1759  -0.0024821376810179
                 400.8  -0.012316355381583
                 113.7  -0.050538917343672
                 37.03   -0.13938490331632
                 13.27   -0.32507749481778
                 5.025   -0.22984830758785
                 1.013     1.0953793467883
 s    1 1.00
                0.3023                   1
 p    3 1.00
                  17.7   0.062679166281506
                 3.854    0.33353656587936
                 1.046    0.74123964163973
 p    1 1.00
                0.2753                   1
 d    1 1.00
                 1.185                   1

12 0
 s    3 1.00
                 13.01   0.033498726389998
                 1.962    0.23480080117413
                0.4446     0.8136829578829
 s    1 1.00
                 0.122                   1
 p    1 1.00
                 0.727                   1

13 0
 s    3 1.00
                 13.01   0.033498726389998
                 1.962    0.23480080117413
                0.4446     0.8136829578829
 s    1 1.00
                 0.122                   1
 p    1 1.00
                 0.727                   1

14 0
 s    3 1.00
                 13.01   0.033498726389998
                 1.962    0.23480080117413
                0.4446     0.8136829578829
 s    1 1.00
                 0.122                   1
 p    1 1.00
                 0.727                   1

15 0
 s    3 1.00
                 13.01   0.033498726389998
                 1.962    0.23480080117413
                0.4446     0.8136829578829
 s    1 1.00
                 0.122                   1
 p    1 1.00
                 0.727                   1

16 0
 s    8 1.00
                 11720  0.00070964594651845
                  1759  0.0054672722921914
                 400.8   0.027823118610189
                 113.7    0.10474773971146
                 37.03    0.28292084635691
                 13.27    0.44849523869833
                 5.025    0.27081688521277
                 1.013    0.01545029160744
 s    8 1.00
                 11720  -0.00031444341168873
                  1759  -0.0024821376810179
                 400.8  -0.012316355381583
                 113.7  -0.050538917343672
                 37.03   -0.13938490331632
                 13.27   -0.32507749481778
                 5.025   -0.22984830758785
                 1.013     1.0953793467883
 s    1 1.00
                0.3023                   1
 p    3 1.00
                  17.7   0.062679166281506
                 3.854    0.33353656587936
                 1.046    0.74123964163973
 p    1 1.00
                0.2753                   1
 d    1 1.00
                 1.185                   1

17 0
 s    3 1.00
                 13.01   0.033498726389998
                 1.962    0.23480080117413
                0.4446     0.8136829578829
 s    1 1.00
                 0.122                   1
 p    1 1.00
                 0.727                   1

18 0
 s    3 1.00
                 13.01   0.033498726389998
                 1.962    0.23480080117413
                0.4446     0.8136829578829
 s    1 1.00
                 0.122                   1
 p    1 1.00
                 0.727                   1

19 0
 s    3 1.00
                 13.01   0.033498726389998
                 1.962    0.23480080117413
                0.4446     0.8136829578829
 s    1 1.00
                 0.122                   1
 p    1 1.00
                 0.727                   1

20 0
 s    3 1.00
                 13.01   0.033498726389998
                 1.962    0.23480080117413
                0.4446     0.8136829578829
 s    1 1.00
                 0.122                   1
 p    1 1.00
                 0.727                   1

21 0
 s    3 1.00
                 13.01   0.033498726389998
                 1.962    0.23480080117413
                0.4446     0.8136829578829
 s    1 1.00
                 0.122                   1
 p    1 1.00
                 0.727                   1

22 0
 s    3 1.00
                 13.01   0.033498726389998
                 1.962    0.23480080117413
                0.4446     0.8136829578829
 s    1 1.00
                 0.122                   1
 p    1 1.00
                 0.727                   1

23 0
 s    3 1.00
                 13.01   0.033498726389998
                 1.962    0.23480080117413
                0.4446     0.8136829578829
 s    1 1.00
                 0.122                   1
 p    1 1.00
                 0.727                   1

24 0
 s    3 1.00
                 13.01   0.033498726389998
                 1.962    0.23480080117413
                0.4446     0.8136829578829
 s    1 1.00
                 0.122                   1
 p    1 1.00
                 0.727                   1

[5d]
[7f]
[9g]

[MO]
 Sym= A
 Ene=     -20.5892274
 Spin= Alpha
 Occup=    2.00000
   1    -0.0035214154151221
   2    -0.020753371470577
   3    -0.035134949629174
   4      0.03826391576637
   5    -0.0056481300413122
   6    -0.0081018884792901
   7     0.018606765642196
   8     0.003407852346192
   9    -0.005183461605542
  10    -0.0041371737372122
  11    -0.0040592049581507
  12    0.0046071663738281
  13    -0.0095141090726183
  14    -0.013471909576944
  15    -0.0079535441477599
  16       0.1992144952086
  17     0.092724702483806
  18     0.006827797264573
  19      0.37231634928586
  20     0.050103618560306
  21     0.019869417137067
  22      0.15838959487562
  23     0.029012628875723
  24    -0.012962533762968
  25    0.0009484391897758
  26      0.00244473082566
  27     -0.02085071279969
  28    0.0023442853796504
  29    -0.0035628777906746
  30    -0.021556189117793
  31    -0.014786527396971
  32    -0.028049562510063
  33    -0.0020611303008987
  34    -0.019917826099388
  35    -0.017714269895314
  36    0.0069252149898407
  37    0.0063565837312869
  38    -0.0019535121367027
  39    0.0027504245603495
  40     0.011008680961068
  41    -0.0087708874494632
  42     0.010711797272625
  43    -0.0011098049521528
  44    -0.0077613055665895
  45    0.0042021910989307
  46    0.00057660853390199
  47    -0.0071275505349748
  48    -0.0076167699057045
  49     0.013992480615038
  50    -0.014953499508683
  51    0.0019791773925232
  52    -0.0017415788736699
  53    -0.0014471819831422
  54    -0.00034435226292413
  55    -0.00014426140002856
  56    0.00098875623282767
  57    0.0017070402677054
  58    0.0040098097177589
  59    -0.018538034016574
  60    -0.0011361010245883
  61    0.0023985983738124
  62    0.0010402479181827
  63    0.0046378510899178
  64    -0.0036618459036971
  65    -0.0079765828483918
  66    -0.0013968844250463
  67    0.0008772512597445
  68    -0.00049513651259773
  69    -0.0008560720680142
  70    0.00033516348588553
  71     3.24078947338e-06
  72    -0.00078955915910591
  73    -0.0021153631575264
  74    0.0010936831103517
  75    -0.0016538995672122
  76    -0.0038526290526926
  77    -0.0030481066789036
  78    -0.0050377688205456
  79    -0.0069654011084208
  80    -0.00022347993316069
  81    0.00092733286154592
  82    -0.00021274543803654
  83    -0.00059929656900065
  84    -0.00055410392555804
  85    -0.0026828568019018
  86    -0.013471288417357
  87    -0.0058262254512945
  88    -0.0085232619419297
  89    -0.017483442448673
  90     0.014311987356736
  91    -0.0020118079698542
  92    -0.038128687420808
  93    0.0047518331436419
  94    -0.0024920198181658
  95    -8.3440940281644e-05
  96    -0.0059348094337208
  97    -0.0036607940258196
  98    0.0017555426304818
  99    0.00063090036550323
 100    -0.0020519681473366
 101    -0.015656854978619
 102    -0.0083743975331341
 103    0.0021649779673264
 104    -0.00089333288675862
 105    -0.010443192201397
 106    0.00059371042070421
 107    -0.0017330171386455
 108    4.4060061475493e-05
 109    -0.00049331921259247
 110    0.00074722013705778
 111    -0.00057104452534736
 112    -6.7033232713602e-05
 113    -0.00053662459233884
 114    -0.00039711090514742
 115    0.0033853603603938
 116    0.0015113339710186
 117      0.00242474641027
 118    -2.9057431849502e-06
 119    0.00032293624292994
 120    0.0051279943412319
 121    0.0015592314928318
 122    4.7406932964348e-05
 123    0.00012391423250523
 124    -1.5935149008854e-05
 125    0.00013382089171928
 126    1.1969608770462e-05
 127    1.5067519066532e-05
 128    -0.00036843605500641
 129    -0.00038107149991698
 130    0.00037998530047401
 131    8.1000552457257e-05
 132    -0.00059632229545287
 133    -0.00063003733080739
 134    0.0030444985747689
 135    0.00011469321599596
 136    0.0001868897907235
 137    -0.00027066892663907
 138    4.4608304055112e-06
 139    5.8019841492694e-05
 140    4.7160109718566e-05
 141    6.2406692843206e-05
 142    0.00018705961843307
 143    -9.112093940801e-05
 144    0.00011826247700934
 145    -4.4655323859035e-05
 146    0.0004693909612178
 147    0.00097860807740704
 148    -0.00025390673590068
 149    0.00024789149386688
 150    -9.6966158235295e-06
 151    3.0246362262264e-05
 152    1.841911056656e-05
 153    -8.218521433368e-06
 154    1.648819818922e-05
 155    -0.011110992639188
 156    -0.0016599669625649
 157    -3.9372471201851e-05
 158     -0.00178570288897
 159    0.0013436438156306
 160    -0.00038890708054545
 161    -0.0024900262510254
 162    -0.0014191828580998
 163    0.00044554277819938
 164    7.9253670085894e-05
 165    0.00043970311797321
 166    0.00066674709430577
 167    6.0450631802266e-05
 168    9.5759355072331e-06
 169    -1.6169690913077e-05
 170    -0.000869734715188
 171    0.0010710996377493
 172    -0.00034417264556096
 173    0.00020539624711375
 174    0.0002087028957228
 175    0.00062204693913685
 176    -0.0040857957955868
 177     -0.01674304185696
 178    0.0083244553045601
 179    -0.005338563135147
 180    0.0059626044320127
 181    0.0072375481045288
 182    -0.0072297471651737
 183    0.0038886854927071
 184    0.00042960571704323
 185    6.4162075636011e-05
 186    0.00091182993222112
 187    -0.00057505591261712
 188    0.00011232630318015
 189    0.00081398841178166
 190    0.0050063434857085
 191    -0.00046461946097882
 192    0.00050627191332519
 193    0.0014411639219916
 194     0.021790693697843
 195     0.048409780742708
 196    -0.00014387131304967
 197    -0.0008921952634533
 198    0.00017917521491026
 199      0.43805977512777
 200      0.14759072917038
 201    0.00049850246199185
 202    -0.033903512720746
 203    -0.0031155622119308
 204     0.020166997452885
 205     0.047135495827341
 206    0.00037118228529225
 207    -0.0011739203059477
 208    -0.00019285932614377
 209    -0.0061552359508294
 210     0.007650259019632
 211    -7.9348128301098e-05
 212    0.00088918189063898
 213    -5.5661531050016e-05
 214    -0.00028815300885246
 215    -0.003446065012806
 216    -7.1906827996084e-05
 217    -0.00038882246171737
 218    0.00052913454786941
 219    -0.00077647248913954
 220    -0.0021620902551738
 221    3.1728593468504e-05
 222    3.4954851188226e-05
 223    0.00010904694166245
 224    0.0006861010319334
 225    0.00021695687596294
 226    3.6485663619721e-05
 227    -8.9756386947063e-05
 228    -0.0001746849808895
