[Molden Format]
made by pyscf v[2.1.0]
[Atoms] (AU)
C   1   6     2.32946917320360    -0.63344186613258     2.37168943427863
C   2   6    -0.29669267073509     0.30039086476086     3.22269546913239
C   3   6    -2.28836574026819    -0.45088865332122     1.27613394164491
C   4   6    -1.50258360260379     0.48150977544368    -1.34195877174189
C   5   6     1.17077037184366    -0.47613539434541    -1.98531603085006
O   6   8     2.90615122545875     0.36947547242271    -0.06380660259594
O   7   8    -1.02480036707776    -0.78170410868758     5.58840958940515
O   8   8    -4.71990091118567     0.61286652808832     1.81907682367207
O   9   8    -3.21856263809797    -0.39246777018029    -3.24986406162526
C   10   6     2.14873576665020     0.54311106765225    -4.52137384344336
O   11   8     0.97527064535291    -0.64120108160005    -6.63217335814292
H   12   1     0.34900595904142    -0.48214283369541     6.76077111064570
H   13   1    -5.19719092819319     0.02690592056156     3.48444332437202
H   14   1    -0.83535721281623    -0.49952075513691    -6.37469817367093
H   15   1    -4.90002393620084     0.08874342853570    -2.71063260170675
O   16   8     4.22615893853768     0.10859122202201     4.07505454789134
H   17   1     4.38166639105427     1.93178575891951     3.94362220620171
H   18   1     2.36505838530753    -2.71537014510103     2.34202262384909
H   19   1    -0.22188597236806     2.38358526023277     3.34538215831753
H   20   1    -2.40897751016855    -2.53158672058258     1.22868291865708
H   21   1    -1.45404220764209     2.56502731408288    -1.31752650267738
H   22   1     1.14953551938192    -2.55944317338479    -2.06041941621865
H   23   1     1.89192576577406     2.61534694132780    -4.54974430175146
H   24   1     4.17463555575142     0.13656105839169    -4.65046670419078
[GTO]
1 0
 s    8 1.00
                  6665  0.00069158396281299
                  1000  0.0053257961529341
                   228   0.027060721042034
                 64.71    0.10165684614077
                 21.06     0.2745748236174
                 7.495    0.44829431892377
                 2.797    0.28490261071525
                0.5215   0.015194859206082
 s    8 1.00
                  6665  -0.00029326965268655
                  1000  -0.0023180354739745
                   228  -0.011499786038565
                 64.71  -0.046826727009787
                 21.06   -0.12846616875047
                 7.495   -0.30126627246289
                 2.797   -0.25563070233011
                0.5215      1.093793361012
 s    1 1.00
                0.1596                   1
 p    3 1.00
                 9.439   0.056979251590039
                 2.002    0.31320721150073
                0.5456    0.76037674173753
 p    1 1.00
                0.1517                   1
 d    1 1.00
                  0.55                   1

2 0
 s    8 1.00
                  6665  0.00069158396281299
                  1000  0.0053257961529341
                   228   0.027060721042034
                 64.71    0.10165684614077
                 21.06     0.2745748236174
                 7.495    0.44829431892377
                 2.797    0.28490261071525
                0.5215   0.015194859206082
 s    8 1.00
                  6665  -0.00029326965268655
                  1000  -0.0023180354739745
                   228  -0.011499786038565
                 64.71  -0.046826727009787
                 21.06   -0.12846616875047
                 7.495   -0.30126627246289
                 2.797   -0.25563070233011
                0.5215      1.093793361012
 s    1 1.00
                0.1596                   1
 p    3 1.00
                 9.439   0.056979251590039
                 2.002    0.31320721150073
                0.5456    0.76037674173753
 p    1 1.00
                0.1517                   1
 d    1 1.00
                  0.55                   1

3 0
 s    8 1.00
                  6665  0.00069158396281299
                  1000  0.0053257961529341
                   228   0.027060721042034
                 64.71    0.10165684614077
                 21.06     0.2745748236174
                 7.495    0.44829431892377
                 2.797    0.28490261071525
                0.5215   0.015194859206082
 s    8 1.00
                  6665  -0.00029326965268655
                  1000  -0.0023180354739745
                   228  -0.011499786038565
                 64.71  -0.046826727009787
                 21.06   -0.12846616875047
                 7.495   -0.30126627246289
                 2.797   -0.25563070233011
                0.5215      1.093793361012
 s    1 1.00
                0.1596                   1
 p    3 1.00
                 9.439   0.056979251590039
                 2.002    0.31320721150073
                0.5456    0.76037674173753
 p    1 1.00
                0.1517                   1
 d    1 1.00
                  0.55                   1

4 0
 s    8 1.00
                  6665  0.00069158396281299
                  1000  0.0053257961529341
                   228   0.027060721042034
                 64.71    0.10165684614077
                 21.06     0.2745748236174
                 7.495    0.44829431892377
                 2.797    0.28490261071525
                0.5215   0.015194859206082
 s    8 1.00
                  6665  -0.00029326965268655
                  1000  -0.0023180354739745
                   228  -0.011499786038565
                 64.71  -0.046826727009787
                 21.06   -0.12846616875047
                 7.495   -0.30126627246289
                 2.797   -0.25563070233011
                0.5215      1.093793361012
 s    1 1.00
                0.1596                   1
 p    3 1.00
                 9.439   0.056979251590039
                 2.002    0.31320721150073
                0.5456    0.76037674173753
 p    1 1.00
                0.1517                   1
 d    1 1.00
                  0.55                   1

5 0
 s    8 1.00
                  6665  0.00069158396281299
                  1000  0.0053257961529341
                   228   0.027060721042034
                 64.71    0.10165684614077
                 21.06     0.2745748236174
                 7.495    0.44829431892377
                 2.797    0.28490261071525
                0.5215   0.015194859206082
 s    8 1.00
                  6665  -0.00029326965268655
                  1000  -0.0023180354739745
                   228  -0.011499786038565
                 64.71  -0.046826727009787
                 21.06   -0.12846616875047
                 7.495   -0.30126627246289
                 2.797   -0.25563070233011
                0.5215      1.093793361012
 s    1 1.00
                0.1596                   1
 p    3 1.00
                 9.439   0.056979251590039
                 2.002    0.31320721150073
                0.5456    0.76037674173753
 p    1 1.00
                0.1517                   1
 d    1 1.00
                  0.55                   1

6 0
 s    8 1.00
                 11720  0.00070964594651845
                  1759  0.0054672722921914
                 400.8   0.027823118610189
                 113.7    0.10474773971146
                 37.03    0.28292084635691
                 13.27    0.44849523869833
                 5.025    0.27081688521277
                 1.013    0.01545029160744
 s    8 1.00
                 11720  -0.00031444341168873
                  1759  -0.0024821376810179
                 400.8  -0.012316355381583
                 113.7  -0.050538917343672
                 37.03   -0.13938490331632
                 13.27   -0.32507749481778
                 5.025   -0.22984830758785
                 1.013     1.0953793467883
 s    1 1.00
                0.3023                   1
 p    3 1.00
                  17.7   0.062679166281506
                 3.854    0.33353656587936
                 1.046    0.74123964163973
 p    1 1.00
                0.2753                   1
 d    1 1.00
                 1.185                   1

7 0
 s    8 1.00
                 11720  0.00070964594651845
                  1759  0.0054672722921914
                 400.8   0.027823118610189
                 113.7    0.10474773971146
                 37.03    0.28292084635691
                 13.27    0.44849523869833
                 5.025    0.27081688521277
                 1.013    0.01545029160744
 s    8 1.00
                 11720  -0.00031444341168873
                  1759  -0.0024821376810179
                 400.8  -0.012316355381583
                 113.7  -0.050538917343672
                 37.03   -0.13938490331632
                 13.27   -0.32507749481778
                 5.025   -0.22984830758785
                 1.013     1.0953793467883
 s    1 1.00
                0.3023                   1
 p    3 1.00
                  17.7   0.062679166281506
                 3.854    0.33353656587936
                 1.046    0.74123964163973
 p    1 1.00
                0.2753                   1
 d    1 1.00
                 1.185                   1

8 0
 s    8 1.00
                 11720  0.00070964594651845
                  1759  0.0054672722921914
                 400.8   0.027823118610189
                 113.7    0.10474773971146
                 37.03    0.28292084635691
                 13.27    0.44849523869833
                 5.025    0.27081688521277
                 1.013    0.01545029160744
 s    8 1.00
                 11720  -0.00031444341168873
                  1759  -0.0024821376810179
                 400.8  -0.012316355381583
                 113.7  -0.050538917343672
                 37.03   -0.13938490331632
                 13.27   -0.32507749481778
                 5.025   -0.22984830758785
                 1.013     1.0953793467883
 s    1 1.00
                0.3023                   1
 p    3 1.00
                  17.7   0.062679166281506
                 3.854    0.33353656587936
                 1.046    0.74123964163973
 p    1 1.00
                0.2753                   1
 d    1 1.00
                 1.185                   1

9 0
 s    8 1.00
                 11720  0.00070964594651845
                  1759  0.0054672722921914
                 400.8   0.027823118610189
                 113.7    0.10474773971146
                 37.03    0.28292084635691
                 13.27    0.44849523869833
                 5.025    0.27081688521277
                 1.013    0.01545029160744
 s    8 1.00
                 11720  -0.00031444341168873
                  1759  -0.0024821376810179
                 400.8  -0.012316355381583
                 113.7  -0.050538917343672
                 37.03   -0.13938490331632
                 13.27   -0.32507749481778
                 5.025   -0.22984830758785
                 1.013     1.0953793467883
 s    1 1.00
                0.3023                   1
 p    3 1.00
                  17.7   0.062679166281506
                 3.854    0.33353656587936
                 1.046    0.74123964163973
 p    1 1.00
                0.2753                   1
 d    1 1.00
                 1.185                   1

10 0
 s    8 1.00
                  6665  0.00069158396281299
                  1000  0.0053257961529341
                   228   0.027060721042034
                 64.71    0.10165684614077
                 21.06     0.2745748236174
                 7.495    0.44829431892377
                 2.797    0.28490261071525
                0.5215   0.015194859206082
 s    8 1.00
                  6665  -0.00029326965268655
                  1000  -0.0023180354739745
                   228  -0.011499786038565
                 64.71  -0.046826727009787
                 21.06   -0.12846616875047
                 7.495   -0.30126627246289
                 2.797   -0.25563070233011
                0.5215      1.093793361012
 s    1 1.00
                0.1596                   1
 p    3 1.00
                 9.439   0.056979251590039
                 2.002    0.31320721150073
                0.5456    0.76037674173753
 p    1 1.00
                0.1517                   1
 d    1 1.00
                  0.55                   1

11 0
 s    8 1.00
                 11720  0.00070964594651845
                  1759  0.0054672722921914
                 400.8   0.027823118610189
                 113.7    0.10474773971146
                 37.03    0.28292084635691
                 13.27    0.44849523869833
                 5.025    0.27081688521277
                 1.013    0.01545029160744
 s    8 1.00
                 11720  -0.00031444341168873
                  1759  -0.0024821376810179
                 400.8  -0.012316355381583
                 113.7  -0.050538917343672
                 37.03   -0.13938490331632
                 13.27   -0.32507749481778
                 5.025   -0.22984830758785
                 1.013     1.0953793467883
 s    1 1.00
                0.3023                   1
 p    3 1.00
                  17.7   0.062679166281506
                 3.854    0.33353656587936
                 1.046    0.74123964163973
 p    1 1.00
                0.2753                   1
 d    1 1.00
                 1.185                   1

12 0
 s    3 1.00
                 13.01   0.033498726389998
                 1.962    0.23480080117413
                0.4446     0.8136829578829
 s    1 1.00
                 0.122                   1
 p    1 1.00
                 0.727                   1

13 0
 s    3 1.00
                 13.01   0.033498726389998
                 1.962    0.23480080117413
                0.4446     0.8136829578829
 s    1 1.00
                 0.122                   1
 p    1 1.00
                 0.727                   1

14 0
 s    3 1.00
                 13.01   0.033498726389998
                 1.962    0.23480080117413
                0.4446     0.8136829578829
 s    1 1.00
                 0.122                   1
 p    1 1.00
                 0.727                   1

15 0
 s    3 1.00
                 13.01   0.033498726389998
                 1.962    0.23480080117413
                0.4446     0.8136829578829
 s    1 1.00
                 0.122                   1
 p    1 1.00
                 0.727                   1

16 0
 s    8 1.00
                 11720  0.00070964594651845
                  1759  0.0054672722921914
                 400.8   0.027823118610189
                 113.7    0.10474773971146
                 37.03    0.28292084635691
                 13.27    0.44849523869833
                 5.025    0.27081688521277
                 1.013    0.01545029160744
 s    8 1.00
                 11720  -0.00031444341168873
                  1759  -0.0024821376810179
                 400.8  -0.012316355381583
                 113.7  -0.050538917343672
                 37.03   -0.13938490331632
                 13.27   -0.32507749481778
                 5.025   -0.22984830758785
                 1.013     1.0953793467883
 s    1 1.00
                0.3023                   1
 p    3 1.00
                  17.7   0.062679166281506
                 3.854    0.33353656587936
                 1.046    0.74123964163973
 p    1 1.00
                0.2753                   1
 d    1 1.00
                 1.185                   1

17 0
 s    3 1.00
                 13.01   0.033498726389998
                 1.962    0.23480080117413
                0.4446     0.8136829578829
 s    1 1.00
                 0.122                   1
 p    1 1.00
                 0.727                   1

18 0
 s    3 1.00
                 13.01   0.033498726389998
                 1.962    0.23480080117413
                0.4446     0.8136829578829
 s    1 1.00
                 0.122                   1
 p    1 1.00
                 0.727                   1

19 0
 s    3 1.00
                 13.01   0.033498726389998
                 1.962    0.23480080117413
                0.4446     0.8136829578829
 s    1 1.00
                 0.122                   1
 p    1 1.00
                 0.727                   1

20 0
 s    3 1.00
                 13.01   0.033498726389998
                 1.962    0.23480080117413
                0.4446     0.8136829578829
 s    1 1.00
                 0.122                   1
 p    1 1.00
                 0.727                   1

21 0
 s    3 1.00
                 13.01   0.033498726389998
                 1.962    0.23480080117413
                0.4446     0.8136829578829
 s    1 1.00
                 0.122                   1
 p    1 1.00
                 0.727                   1

22 0
 s    3 1.00
                 13.01   0.033498726389998
                 1.962    0.23480080117413
                0.4446     0.8136829578829
 s    1 1.00
                 0.122                   1
 p    1 1.00
                 0.727                   1

23 0
 s    3 1.00
                 13.01   0.033498726389998
                 1.962    0.23480080117413
                0.4446     0.8136829578829
 s    1 1.00
                 0.122                   1
 p    1 1.00
                 0.727                   1

24 0
 s    3 1.00
                 13.01   0.033498726389998
                 1.962    0.23480080117413
                0.4446     0.8136829578829
 s    1 1.00
                 0.122                   1
 p    1 1.00
                 0.727                   1

[5d]
[7f]
[9g]

[MO]
 Sym= A
 Ene=     -20.5892274
 Spin= Alpha
 Occup=    2.00000
   1    0.0013194930893481
   2     0.031807759875586
   3     0.088446050382837
   4    -0.041643228618464
   5    0.0054300142580084
   6     0.011610168909872
   7    -0.032260822863143
   8     0.010781406849999
   9    -0.048545999678796
  10    -0.00077365855929508
  11    0.00013113504059595
  12    0.00050999281643019
  13    -0.00023891240871155
  14    0.00044365134354906
  15    0.00022007462337619
  16    -0.0053632187169583
  17    0.0079782389543949
  18    -0.00078611668325647
  19    0.0077114776810729
  20    -0.0082566751970836
  21    -0.020193140339733
  22    0.0041949073337158
  23     0.044880840641213
  24     0.012516470091657
  25    -0.017163119489309
  26     0.021332194273873
  27     0.020556457160198
  28    -0.0028606698733275
  29    -0.00067049388557133
  30    0.0020400668421968
  31     0.031276169100095
  32    0.0051646362094439
  33    -0.0082008113349037
  34     0.002214695839009
  35     0.024334725737596
  36    -0.019713396328999
  37    -0.027395176233644
  38    -0.00022727078572096
  39    -0.00045637722282365
  40    -6.5628178445299e-05
  41    0.00017524264018727
  42    0.0008418345432072
  43    0.00016686364302804
  44    1.3330928870962e-05
  45    -0.016854450040744
  46    0.0010146620485662
  47    0.0034601953552169
  48    -0.0031291283397609
  49    0.0053272750609011
  50     0.017518642830759
  51    -0.0070367636126824
  52    -0.0005957203177941
  53    0.00073004775838916
  54    -0.00013379898527685
  55    -0.00010088010679255
  56    -0.00037245042455811
  57    0.0013415626569242
  58    0.00051645983793746
  59    -0.019555242905826
  60    0.0013526521006034
  61    -0.00010290609513487
  62    -0.0013756027952259
  63    -0.0084746462556902
  64    -0.0034419029927258
  65    -0.012408835309643
  66    -0.00061966524868358
  67    -0.00079225834701208
  68    -0.00035347831112365
  69    0.00062748317787209
  70    -0.00038348925242511
  71    0.0014948702443676
  72    -0.0024017320829986
  73    -0.028346536918912
  74    0.0078455908454374
  75    0.0060606362349321
  76    -0.011443697777843
  77     0.005984580609223
  78     0.010298335803246
  79    -0.028310183834518
  80    -0.000105817752772
  81    -0.0005514501995332
  82    0.00066564658356331
  83    0.00057573598209765
  84    0.00013108686138289
  85    0.0018377913326865
  86     0.041910815917167
  87     0.024987615698268
  88     -0.30722432543618
  89      0.52137118394044
  90      0.17977353436888
  91     -0.23984941838344
  92      0.39725053118283
  93      0.14498529578467
  94    -0.0017921475328722
  95    0.0063947120835363
  96    -0.0014658134002391
  97     -0.01367205316287
  98    0.0072829554961875
  99    -0.0011079829360819
 100    -0.004414001762007
 101    0.0075177846970549
 102    -0.0015488096989071
 103    0.0023503304710001
 104    -0.0086014701278967
 105    0.0079560863502498
 106    0.00071696101120713
 107    -0.0071026631954249
 108    -5.9050984532635e-05
 109    0.00041112867487553
 110    0.00011301718962762
 111    0.00029536626592709
 112    -0.00016601606827111
 113    -9.5883971130318e-05
 114    -0.00046969041105635
 115     0.001400862989135
 116    -0.00011707821110836
 117    -0.00093801579222691
 118    -0.0005893646262098
 119    0.00080846918029677
 120    -0.0020930702119137
 121     0.001362787402424
 122    -5.8812351064848e-05
 123    1.8083824429474e-05
 124    -3.7417738251368e-05
 125    -1.3518780847974e-05
 126    4.4465986116974e-05
 127    0.00030219195573773
 128    -0.00021372165105278
 129    -0.0038911556217282
 130    -0.00037828364072776
 131    -4.9747094515219e-05
 132    -3.5834355805528e-05
 133    0.0030645093724161
 134    0.00092348768407535
 135    0.0019019676501338
 136    0.00043184054670985
 137    0.00032722891682121
 138    0.00011889019116471
 139    -6.3661784442085e-05
 140    -0.0001253013851414
 141    -4.0438295829517e-05
 142    0.00013972646507637
 143      0.00188796752544
 144    0.00027669166174463
 145    0.00019495013285026
 146    0.00065229189424773
 147    0.00031903833555388
 148    0.0010788657561932
 149    -3.5730081911792e-05
 150    -3.4676036442367e-05
 151    -3.41322143636e-05
 152    9.8243337474486e-06
 153    -2.8251775684981e-05
 154    -2.9166771032663e-05
 155    -0.0077930847130991
 156    -0.0002458811382875
 157    -0.014332690334892
 158     0.024213091730739
 159    0.0082121764278767
 160    -0.0033428016612559
 161      0.02180173539213
 162    0.0027951007625871
 163    0.00014515498936606
 164    0.0021971731138261
 165    4.8809272302278e-05
 166    -0.001101822601084
 167    -8.0331141748438e-05
 168    3.5931461016036e-06
 169    1.8476967476999e-05
 170    -0.00013591818747336
 171    0.0040292214834222
 172    0.00020385851121971
 173    6.2554559846777e-05
 174    0.00022332513389783
 175    -0.0010318366404499
 176    -0.00017960662147681
 177     0.016279593696307
 178    -0.0010191288962351
 179    -0.00062248043748604
 180    0.0023870522277995
 181    -0.0010845924676128
 182    -0.0060730018240609
 183    0.0013755873545718
 184    -0.00068802782382697
 185    0.00074029399955678
 186    0.00015038185373336
 187    0.00066611910702718
 188    6.4897580143442e-05
 189    -0.001576829586803
 190    -0.00071871072771286
 191    0.00014003164326317
 192    -5.1758106251067e-05
 193    0.00067519967703683
 194    0.0081949737322988
 195    -0.030930349180723
 196    0.0013631150864899
 197    -0.00040833517232736
 198    0.00067143206358231
 199    -0.051929876192495
 200    -0.049646483320968
 201    0.00052098790837493
 202    -0.00026210441498155
 203    -0.0032369490606938
 204    0.0017803965091908
 205    -0.025022669519923
 206    -0.0013095049110579
 207    -0.00065961979541389
 208    -0.0013273575527198
 209    0.0030242090411636
 210    -0.0055239152456383
 211    -0.00015469344345576
 212    -5.1259886356829e-05
 213    -0.00027989064240331
 214    0.00012215652731923
 215    0.0045260778444742
 216    0.00010723039757586
 217    0.00038739042375114
 218    0.00041500000354329
 219    -0.00015536178283341
 220    0.00078016394436043
 221    -0.00011279419029302
 222    -7.0074980068024e-05
 223    5.8645650673828e-05
 224    -0.00075341516924446
 225    0.00057586742110197
 226    -0.00012902312867415
 227    -6.1623808052712e-05
 228    0.00031012027330991
