[Molden Format]
made by pyscf v[2.1.0]
[Atoms] (AU)
C   1   6     2.32946917320360    -0.63344186613258     2.37168943427863
C   2   6    -0.29669267073509     0.30039086476086     3.22269546913239
C   3   6    -2.28836574026819    -0.45088865332122     1.27613394164491
C   4   6    -1.50258360260379     0.48150977544368    -1.34195877174189
C   5   6     1.17077037184366    -0.47613539434541    -1.98531603085006
O   6   8     2.90615122545875     0.36947547242271    -0.06380660259594
O   7   8    -1.02480036707776    -0.78170410868758     5.58840958940515
O   8   8    -4.71990091118567     0.61286652808832     1.81907682367207
O   9   8    -3.21856263809797    -0.39246777018029    -3.24986406162526
C   10   6     2.14873576665020     0.54311106765225    -4.52137384344336
O   11   8     0.97527064535291    -0.64120108160005    -6.63217335814292
H   12   1     0.34900595904142    -0.48214283369541     6.76077111064570
H   13   1    -5.19719092819319     0.02690592056156     3.48444332437202
H   14   1    -0.83535721281623    -0.49952075513691    -6.37469817367093
H   15   1    -4.90002393620084     0.08874342853570    -2.71063260170675
O   16   8     4.22615893853768     0.10859122202201     4.07505454789134
H   17   1     4.38166639105427     1.93178575891951     3.94362220620171
H   18   1     2.36505838530753    -2.71537014510103     2.34202262384909
H   19   1    -0.22188597236806     2.38358526023277     3.34538215831753
H   20   1    -2.40897751016855    -2.53158672058258     1.22868291865708
H   21   1    -1.45404220764209     2.56502731408288    -1.31752650267738
H   22   1     1.14953551938192    -2.55944317338479    -2.06041941621865
H   23   1     1.89192576577406     2.61534694132780    -4.54974430175146
H   24   1     4.17463555575142     0.13656105839169    -4.65046670419078
[GTO]
1 0
 s    8 1.00
                  6665  0.00069158396281299
                  1000  0.0053257961529341
                   228   0.027060721042034
                 64.71    0.10165684614077
                 21.06     0.2745748236174
                 7.495    0.44829431892377
                 2.797    0.28490261071525
                0.5215   0.015194859206082
 s    8 1.00
                  6665  -0.00029326965268655
                  1000  -0.0023180354739745
                   228  -0.011499786038565
                 64.71  -0.046826727009787
                 21.06   -0.12846616875047
                 7.495   -0.30126627246289
                 2.797   -0.25563070233011
                0.5215      1.093793361012
 s    1 1.00
                0.1596                   1
 p    3 1.00
                 9.439   0.056979251590039
                 2.002    0.31320721150073
                0.5456    0.76037674173753
 p    1 1.00
                0.1517                   1
 d    1 1.00
                  0.55                   1

2 0
 s    8 1.00
                  6665  0.00069158396281299
                  1000  0.0053257961529341
                   228   0.027060721042034
                 64.71    0.10165684614077
                 21.06     0.2745748236174
                 7.495    0.44829431892377
                 2.797    0.28490261071525
                0.5215   0.015194859206082
 s    8 1.00
                  6665  -0.00029326965268655
                  1000  -0.0023180354739745
                   228  -0.011499786038565
                 64.71  -0.046826727009787
                 21.06   -0.12846616875047
                 7.495   -0.30126627246289
                 2.797   -0.25563070233011
                0.5215      1.093793361012
 s    1 1.00
                0.1596                   1
 p    3 1.00
                 9.439   0.056979251590039
                 2.002    0.31320721150073
                0.5456    0.76037674173753
 p    1 1.00
                0.1517                   1
 d    1 1.00
                  0.55                   1

3 0
 s    8 1.00
                  6665  0.00069158396281299
                  1000  0.0053257961529341
                   228   0.027060721042034
                 64.71    0.10165684614077
                 21.06     0.2745748236174
                 7.495    0.44829431892377
                 2.797    0.28490261071525
                0.5215   0.015194859206082
 s    8 1.00
                  6665  -0.00029326965268655
                  1000  -0.0023180354739745
                   228  -0.011499786038565
                 64.71  -0.046826727009787
                 21.06   -0.12846616875047
                 7.495   -0.30126627246289
                 2.797   -0.25563070233011
                0.5215      1.093793361012
 s    1 1.00
                0.1596                   1
 p    3 1.00
                 9.439   0.056979251590039
                 2.002    0.31320721150073
                0.5456    0.76037674173753
 p    1 1.00
                0.1517                   1
 d    1 1.00
                  0.55                   1

4 0
 s    8 1.00
                  6665  0.00069158396281299
                  1000  0.0053257961529341
                   228   0.027060721042034
                 64.71    0.10165684614077
                 21.06     0.2745748236174
                 7.495    0.44829431892377
                 2.797    0.28490261071525
                0.5215   0.015194859206082
 s    8 1.00
                  6665  -0.00029326965268655
                  1000  -0.0023180354739745
                   228  -0.011499786038565
                 64.71  -0.046826727009787
                 21.06   -0.12846616875047
                 7.495   -0.30126627246289
                 2.797   -0.25563070233011
                0.5215      1.093793361012
 s    1 1.00
                0.1596                   1
 p    3 1.00
                 9.439   0.056979251590039
                 2.002    0.31320721150073
                0.5456    0.76037674173753
 p    1 1.00
                0.1517                   1
 d    1 1.00
                  0.55                   1

5 0
 s    8 1.00
                  6665  0.00069158396281299
                  1000  0.0053257961529341
                   228   0.027060721042034
                 64.71    0.10165684614077
                 21.06     0.2745748236174
                 7.495    0.44829431892377
                 2.797    0.28490261071525
                0.5215   0.015194859206082
 s    8 1.00
                  6665  -0.00029326965268655
                  1000  -0.0023180354739745
                   228  -0.011499786038565
                 64.71  -0.046826727009787
                 21.06   -0.12846616875047
                 7.495   -0.30126627246289
                 2.797   -0.25563070233011
                0.5215      1.093793361012
 s    1 1.00
                0.1596                   1
 p    3 1.00
                 9.439   0.056979251590039
                 2.002    0.31320721150073
                0.5456    0.76037674173753
 p    1 1.00
                0.1517                   1
 d    1 1.00
                  0.55                   1

6 0
 s    8 1.00
                 11720  0.00070964594651845
                  1759  0.0054672722921914
                 400.8   0.027823118610189
                 113.7    0.10474773971146
                 37.03    0.28292084635691
                 13.27    0.44849523869833
                 5.025    0.27081688521277
                 1.013    0.01545029160744
 s    8 1.00
                 11720  -0.00031444341168873
                  1759  -0.0024821376810179
                 400.8  -0.012316355381583
                 113.7  -0.050538917343672
                 37.03   -0.13938490331632
                 13.27   -0.32507749481778
                 5.025   -0.22984830758785
                 1.013     1.0953793467883
 s    1 1.00
                0.3023                   1
 p    3 1.00
                  17.7   0.062679166281506
                 3.854    0.33353656587936
                 1.046    0.74123964163973
 p    1 1.00
                0.2753                   1
 d    1 1.00
                 1.185                   1

7 0
 s    8 1.00
                 11720  0.00070964594651845
                  1759  0.0054672722921914
                 400.8   0.027823118610189
                 113.7    0.10474773971146
                 37.03    0.28292084635691
                 13.27    0.44849523869833
                 5.025    0.27081688521277
                 1.013    0.01545029160744
 s    8 1.00
                 11720  -0.00031444341168873
                  1759  -0.0024821376810179
                 400.8  -0.012316355381583
                 113.7  -0.050538917343672
                 37.03   -0.13938490331632
                 13.27   -0.32507749481778
                 5.025   -0.22984830758785
                 1.013     1.0953793467883
 s    1 1.00
                0.3023                   1
 p    3 1.00
                  17.7   0.062679166281506
                 3.854    0.33353656587936
                 1.046    0.74123964163973
 p    1 1.00
                0.2753                   1
 d    1 1.00
                 1.185                   1

8 0
 s    8 1.00
                 11720  0.00070964594651845
                  1759  0.0054672722921914
                 400.8   0.027823118610189
                 113.7    0.10474773971146
                 37.03    0.28292084635691
                 13.27    0.44849523869833
                 5.025    0.27081688521277
                 1.013    0.01545029160744
 s    8 1.00
                 11720  -0.00031444341168873
                  1759  -0.0024821376810179
                 400.8  -0.012316355381583
                 113.7  -0.050538917343672
                 37.03   -0.13938490331632
                 13.27   -0.32507749481778
                 5.025   -0.22984830758785
                 1.013     1.0953793467883
 s    1 1.00
                0.3023                   1
 p    3 1.00
                  17.7   0.062679166281506
                 3.854    0.33353656587936
                 1.046    0.74123964163973
 p    1 1.00
                0.2753                   1
 d    1 1.00
                 1.185                   1

9 0
 s    8 1.00
                 11720  0.00070964594651845
                  1759  0.0054672722921914
                 400.8   0.027823118610189
                 113.7    0.10474773971146
                 37.03    0.28292084635691
                 13.27    0.44849523869833
                 5.025    0.27081688521277
                 1.013    0.01545029160744
 s    8 1.00
                 11720  -0.00031444341168873
                  1759  -0.0024821376810179
                 400.8  -0.012316355381583
                 113.7  -0.050538917343672
                 37.03   -0.13938490331632
                 13.27   -0.32507749481778
                 5.025   -0.22984830758785
                 1.013     1.0953793467883
 s    1 1.00
                0.3023                   1
 p    3 1.00
                  17.7   0.062679166281506
                 3.854    0.33353656587936
                 1.046    0.74123964163973
 p    1 1.00
                0.2753                   1
 d    1 1.00
                 1.185                   1

10 0
 s    8 1.00
                  6665  0.00069158396281299
                  1000  0.0053257961529341
                   228   0.027060721042034
                 64.71    0.10165684614077
                 21.06     0.2745748236174
                 7.495    0.44829431892377
                 2.797    0.28490261071525
                0.5215   0.015194859206082
 s    8 1.00
                  6665  -0.00029326965268655
                  1000  -0.0023180354739745
                   228  -0.011499786038565
                 64.71  -0.046826727009787
                 21.06   -0.12846616875047
                 7.495   -0.30126627246289
                 2.797   -0.25563070233011
                0.5215      1.093793361012
 s    1 1.00
                0.1596                   1
 p    3 1.00
                 9.439   0.056979251590039
                 2.002    0.31320721150073
                0.5456    0.76037674173753
 p    1 1.00
                0.1517                   1
 d    1 1.00
                  0.55                   1

11 0
 s    8 1.00
                 11720  0.00070964594651845
                  1759  0.0054672722921914
                 400.8   0.027823118610189
                 113.7    0.10474773971146
                 37.03    0.28292084635691
                 13.27    0.44849523869833
                 5.025    0.27081688521277
                 1.013    0.01545029160744
 s    8 1.00
                 11720  -0.00031444341168873
                  1759  -0.0024821376810179
                 400.8  -0.012316355381583
                 113.7  -0.050538917343672
                 37.03   -0.13938490331632
                 13.27   -0.32507749481778
                 5.025   -0.22984830758785
                 1.013     1.0953793467883
 s    1 1.00
                0.3023                   1
 p    3 1.00
                  17.7   0.062679166281506
                 3.854    0.33353656587936
                 1.046    0.74123964163973
 p    1 1.00
                0.2753                   1
 d    1 1.00
                 1.185                   1

12 0
 s    3 1.00
                 13.01   0.033498726389998
                 1.962    0.23480080117413
                0.4446     0.8136829578829
 s    1 1.00
                 0.122                   1
 p    1 1.00
                 0.727                   1

13 0
 s    3 1.00
                 13.01   0.033498726389998
                 1.962    0.23480080117413
                0.4446     0.8136829578829
 s    1 1.00
                 0.122                   1
 p    1 1.00
                 0.727                   1

14 0
 s    3 1.00
                 13.01   0.033498726389998
                 1.962    0.23480080117413
                0.4446     0.8136829578829
 s    1 1.00
                 0.122                   1
 p    1 1.00
                 0.727                   1

15 0
 s    3 1.00
                 13.01   0.033498726389998
                 1.962    0.23480080117413
                0.4446     0.8136829578829
 s    1 1.00
                 0.122                   1
 p    1 1.00
                 0.727                   1

16 0
 s    8 1.00
                 11720  0.00070964594651845
                  1759  0.0054672722921914
                 400.8   0.027823118610189
                 113.7    0.10474773971146
                 37.03    0.28292084635691
                 13.27    0.44849523869833
                 5.025    0.27081688521277
                 1.013    0.01545029160744
 s    8 1.00
                 11720  -0.00031444341168873
                  1759  -0.0024821376810179
                 400.8  -0.012316355381583
                 113.7  -0.050538917343672
                 37.03   -0.13938490331632
                 13.27   -0.32507749481778
                 5.025   -0.22984830758785
                 1.013     1.0953793467883
 s    1 1.00
                0.3023                   1
 p    3 1.00
                  17.7   0.062679166281506
                 3.854    0.33353656587936
                 1.046    0.74123964163973
 p    1 1.00
                0.2753                   1
 d    1 1.00
                 1.185                   1

17 0
 s    3 1.00
                 13.01   0.033498726389998
                 1.962    0.23480080117413
                0.4446     0.8136829578829
 s    1 1.00
                 0.122                   1
 p    1 1.00
                 0.727                   1

18 0
 s    3 1.00
                 13.01   0.033498726389998
                 1.962    0.23480080117413
                0.4446     0.8136829578829
 s    1 1.00
                 0.122                   1
 p    1 1.00
                 0.727                   1

19 0
 s    3 1.00
                 13.01   0.033498726389998
                 1.962    0.23480080117413
                0.4446     0.8136829578829
 s    1 1.00
                 0.122                   1
 p    1 1.00
                 0.727                   1

20 0
 s    3 1.00
                 13.01   0.033498726389998
                 1.962    0.23480080117413
                0.4446     0.8136829578829
 s    1 1.00
                 0.122                   1
 p    1 1.00
                 0.727                   1

21 0
 s    3 1.00
                 13.01   0.033498726389998
                 1.962    0.23480080117413
                0.4446     0.8136829578829
 s    1 1.00
                 0.122                   1
 p    1 1.00
                 0.727                   1

22 0
 s    3 1.00
                 13.01   0.033498726389998
                 1.962    0.23480080117413
                0.4446     0.8136829578829
 s    1 1.00
                 0.122                   1
 p    1 1.00
                 0.727                   1

23 0
 s    3 1.00
                 13.01   0.033498726389998
                 1.962    0.23480080117413
                0.4446     0.8136829578829
 s    1 1.00
                 0.122                   1
 p    1 1.00
                 0.727                   1

24 0
 s    3 1.00
                 13.01   0.033498726389998
                 1.962    0.23480080117413
                0.4446     0.8136829578829
 s    1 1.00
                 0.122                   1
 p    1 1.00
                 0.727                   1

[5d]
[7f]
[9g]

[MO]
 Sym= A
 Ene=     -20.5892274
 Spin= Alpha
 Occup=    2.00000
   1    -0.00076083142695794
   2    0.00045124001957718
   3    0.0065773456118433
   4    0.0012225906937741
   5    0.0012665109120345
   6    -0.0034985922300985
   7    -0.0032588105047874
   8    0.0033856086047775
   9    1.7878321233683e-05
  10    0.00031950824206395
  11    0.00014982111056508
  12    -0.00065350917079262
  13    0.00031431110417013
  14    0.00023067277187923
  15    8.5985313997966e-05
  16    -0.0012285103759281
  17    -0.0075982540958062
  18    -0.0009200313108476
  19    0.00051083818544727
  20    0.0015747784447628
  21    -0.0049833510403082
  22    0.0033305269171355
  23    -0.0011906382251531
  24    -0.00018353541156118
  25    -4.8113053468082e-05
  26    0.00012307878906984
  27    8.2955653257647e-05
  28    0.00033314309036848
  29    -0.0004334360731599
  30    -0.0063969314502117
  31    -0.015536855983075
  32    -0.0011990481130431
  33    -0.0036829360696345
  34     0.007980537196209
  35    0.00099623272537307
  36    -0.0060204683171564
  37    0.0079691157914095
  38    -0.00025232240173046
  39    -0.0017735853824227
  40    0.00065290702604246
  41    0.0011537526498058
  42    -0.00026079028248063
  43    -0.00040561016189513
  44     0.011209572108154
  45     0.045480860918235
  46      0.02209819043218
  47    -0.0058638519198354
  48    -0.005192036469914
  49     0.023928149696538
  50    -0.0055366170271041
  51    -0.0038752950224443
  52    -0.0012984912855904
  53    0.0020205401180157
  54    0.00082522166866329
  55    -0.00019279983176618
  56    -1.7459790583082e-05
  57    -0.0025656685592685
  58    -0.019165734796022
  59    -0.017062306260415
  60    -0.003014190106829
  61    -0.0091248987625471
  62      0.03117709483556
  63    0.0055382767118293
  64    -0.020678277575174
  65    0.0072427514926771
  66    -0.00066284470507157
  67    -0.015548384327968
  68    0.0034092846533761
  69    0.0097729592879778
  70    0.0013806989180933
  71    -0.00032994064185235
  72    -0.0035850954720443
  73    -0.010277158637036
  74     0.003390925624867
  75    0.0047512030068108
  76    0.0085669934025499
  77    -0.0012616782618907
  78      0.00496172250731
  79    0.0075968584891622
  80    -2.7604475190794e-05
  81    -0.00076658048425368
  82    1.4790574637393e-05
  83    0.00071113368161233
  84    0.00025670889216891
  85    -0.00015418012051598
  86    -0.00020688175383311
  87    0.0013329132515434
  88    0.0003027228544525
  89    9.7593924874645e-05
  90    -0.00042515652517338
  91     0.001259081747452
  92    0.00033214451219024
  93    -0.0009314935326754
  94    3.0813281090968e-05
  95    8.6607087045866e-06
  96    -3.2251961496906e-05
  97    1.1419471786562e-05
  98    3.2128850848194e-05
  99    -0.00037243231293345
 100    0.00082391731110106
 101    0.0079839612524594
 102    0.0026453200816983
 103    -0.00073238414218912
 104    -0.0010762495477238
 105    0.0035410419493569
 106    -0.00049312435324717
 107    -0.0026598179634869
 108    -0.00012580676351983
 109    0.00030313904075172
 110    8.9253554300075e-06
 111    -0.00011730331992548
 112    -3.4736293572065e-05
 113    1.5393380218207e-05
 114    -0.0013534431452892
 115    -0.005400352515884
 116    -0.00070081378849854
 117    0.00071065472466898
 118    0.0027974700387678
 119    0.0023736160904533
 120    0.0017582136838984
 121    0.0016092419346309
 122    -9.4537853384793e-05
 123    0.00019353932746226
 124    -1.2368215022622e-05
 125    0.00018132950357947
 126    -3.7349543800699e-05
 127    -0.006392033766007
 128      0.20475734875971
 129     0.095464740867991
 130      0.37109703346074
 131    -0.084147387416251
 132    -0.034979035478489
 133      0.16941214991164
 134    -0.016945449793061
 135    -0.0063426866462425
 136    -0.012449496659537
 137    -0.0033866984708572
 138    -0.0011431173361418
 139     0.018612006365836
 140    -0.010446584316161
 141    -0.0019974002029845
 142    -0.011135054222197
 143    -0.016688220780372
 144    -0.012303348525248
 145    -0.0075147600351539
 146    -0.015448130136201
 147    -0.019616613242624
 148    0.0059451422751957
 149    0.0021212014158559
 150    -0.0027867667124241
 151    0.0057896822133382
 152    -0.00085542521458063
 153    0.0060904882001613
 154    0.0024205155573791
 155    5.7113347241945e-05
 156    0.00099032215495073
 157    9.2038201350045e-05
 158    3.9493611629078e-05
 159    -1.860212048983e-05
 160    -0.0020800397629061
 161    -0.0022822092054468
 162    0.00032376270965178
 163    -0.0001791744791467
 164    2.5628729720415e-05
 165     0.026137269730474
 166     0.031765552281051
 167    -0.0025319343554747
 168    -0.0015161069812449
 169    -0.0040243105153992
 170    0.0032225170554324
 171    0.0052873500784093
 172    0.00029362343886882
 173    -0.00027849235200149
 174    -5.5189146930583e-05
 175    1.3810722683612e-05
 176    -0.00019072928857615
 177    -0.00090405347376673
 178    -6.3748706153779e-05
 179    -0.00024658508302032
 180    0.00075309258016409
 181    0.0002564660898417
 182    -0.0007110367690128
 183    0.00077141097640328
 184    7.1086691518968e-05
 185    -1.8218960498951e-05
 186    -8.8500098540881e-06
 187    -9.1306188060948e-06
 188    -4.6385795736686e-05
 189    -0.00025034955537981
 190    0.00053005277966097
 191    4.2407572345289e-06
 192    -3.081350725969e-05
 193    5.4528579436913e-05
 194    0.00061353744465639
 195    0.0020937147834965
 196    0.00015598352386914
 197    0.00023680131145155
 198    -0.00011742927146056
 199    0.00015803790789162
 200    0.0001454842948991
 201    5.7152618457277e-05
 202    2.8317930251958e-05
 203    0.00017120557269318
 204    -0.001025792709226
 205    0.0020552278536698
 206    -0.00018380925604268
 207    0.00021935183997255
 208    0.0002427920729419
 209    0.0026972899685703
 210    1.1461435297119e-05
 211    0.00054041501222429
 212    -0.00046276205911249
 213    -0.00033207026325356
 214    -0.011910687609476
 215    -0.022197587885109
 216    -0.0016978416068043
 217    -0.00034337676818015
 218      0.00222908383847
 219    -0.023060862635609
 220    -0.045012770650954
 221     0.010469829233037
 222    -0.005029515561375
 223    -0.0026038366562197
 224      0.43650011596253
 225      0.13425012327217
 226    -0.033393840971399
 227    0.0061397125278393
 228    0.0028833696278205
