[Molden Format]
made by pyscf v[2.1.0]
[Atoms] (AU)
C   1   6     2.32946917320360    -0.63344186613258     2.37168943427863
C   2   6    -0.29669267073509     0.30039086476086     3.22269546913239
C   3   6    -2.28836574026819    -0.45088865332122     1.27613394164491
C   4   6    -1.50258360260379     0.48150977544368    -1.34195877174189
C   5   6     1.17077037184366    -0.47613539434541    -1.98531603085006
O   6   8     2.90615122545875     0.36947547242271    -0.06380660259594
O   7   8    -1.02480036707776    -0.78170410868758     5.58840958940515
O   8   8    -4.71990091118567     0.61286652808832     1.81907682367207
O   9   8    -3.21856263809797    -0.39246777018029    -3.24986406162526
C   10   6     2.14873576665020     0.54311106765225    -4.52137384344336
O   11   8     0.97527064535291    -0.64120108160005    -6.63217335814292
H   12   1     0.34900595904142    -0.48214283369541     6.76077111064570
H   13   1    -5.19719092819319     0.02690592056156     3.48444332437202
H   14   1    -0.83535721281623    -0.49952075513691    -6.37469817367093
H   15   1    -4.90002393620084     0.08874342853570    -2.71063260170675
O   16   8     4.22615893853768     0.10859122202201     4.07505454789134
H   17   1     4.38166639105427     1.93178575891951     3.94362220620171
H   18   1     2.36505838530753    -2.71537014510103     2.34202262384909
H   19   1    -0.22188597236806     2.38358526023277     3.34538215831753
H   20   1    -2.40897751016855    -2.53158672058258     1.22868291865708
H   21   1    -1.45404220764209     2.56502731408288    -1.31752650267738
H   22   1     1.14953551938192    -2.55944317338479    -2.06041941621865
H   23   1     1.89192576577406     2.61534694132780    -4.54974430175146
H   24   1     4.17463555575142     0.13656105839169    -4.65046670419078
[GTO]
1 0
 s    8 1.00
                  6665  0.00069158396281299
                  1000  0.0053257961529341
                   228   0.027060721042034
                 64.71    0.10165684614077
                 21.06     0.2745748236174
                 7.495    0.44829431892377
                 2.797    0.28490261071525
                0.5215   0.015194859206082
 s    8 1.00
                  6665  -0.00029326965268655
                  1000  -0.0023180354739745
                   228  -0.011499786038565
                 64.71  -0.046826727009787
                 21.06   -0.12846616875047
                 7.495   -0.30126627246289
                 2.797   -0.25563070233011
                0.5215      1.093793361012
 s    1 1.00
                0.1596                   1
 p    3 1.00
                 9.439   0.056979251590039
                 2.002    0.31320721150073
                0.5456    0.76037674173753
 p    1 1.00
                0.1517                   1
 d    1 1.00
                  0.55                   1

2 0
 s    8 1.00
                  6665  0.00069158396281299
                  1000  0.0053257961529341
                   228   0.027060721042034
                 64.71    0.10165684614077
                 21.06     0.2745748236174
                 7.495    0.44829431892377
                 2.797    0.28490261071525
                0.5215   0.015194859206082
 s    8 1.00
                  6665  -0.00029326965268655
                  1000  -0.0023180354739745
                   228  -0.011499786038565
                 64.71  -0.046826727009787
                 21.06   -0.12846616875047
                 7.495   -0.30126627246289
                 2.797   -0.25563070233011
                0.5215      1.093793361012
 s    1 1.00
                0.1596                   1
 p    3 1.00
                 9.439   0.056979251590039
                 2.002    0.31320721150073
                0.5456    0.76037674173753
 p    1 1.00
                0.1517                   1
 d    1 1.00
                  0.55                   1

3 0
 s    8 1.00
                  6665  0.00069158396281299
                  1000  0.0053257961529341
                   228   0.027060721042034
                 64.71    0.10165684614077
                 21.06     0.2745748236174
                 7.495    0.44829431892377
                 2.797    0.28490261071525
                0.5215   0.015194859206082
 s    8 1.00
                  6665  -0.00029326965268655
                  1000  -0.0023180354739745
                   228  -0.011499786038565
                 64.71  -0.046826727009787
                 21.06   -0.12846616875047
                 7.495   -0.30126627246289
                 2.797   -0.25563070233011
                0.5215      1.093793361012
 s    1 1.00
                0.1596                   1
 p    3 1.00
                 9.439   0.056979251590039
                 2.002    0.31320721150073
                0.5456    0.76037674173753
 p    1 1.00
                0.1517                   1
 d    1 1.00
                  0.55                   1

4 0
 s    8 1.00
                  6665  0.00069158396281299
                  1000  0.0053257961529341
                   228   0.027060721042034
                 64.71    0.10165684614077
                 21.06     0.2745748236174
                 7.495    0.44829431892377
                 2.797    0.28490261071525
                0.5215   0.015194859206082
 s    8 1.00
                  6665  -0.00029326965268655
                  1000  -0.0023180354739745
                   228  -0.011499786038565
                 64.71  -0.046826727009787
                 21.06   -0.12846616875047
                 7.495   -0.30126627246289
                 2.797   -0.25563070233011
                0.5215      1.093793361012
 s    1 1.00
                0.1596                   1
 p    3 1.00
                 9.439   0.056979251590039
                 2.002    0.31320721150073
                0.5456    0.76037674173753
 p    1 1.00
                0.1517                   1
 d    1 1.00
                  0.55                   1

5 0
 s    8 1.00
                  6665  0.00069158396281299
                  1000  0.0053257961529341
                   228   0.027060721042034
                 64.71    0.10165684614077
                 21.06     0.2745748236174
                 7.495    0.44829431892377
                 2.797    0.28490261071525
                0.5215   0.015194859206082
 s    8 1.00
                  6665  -0.00029326965268655
                  1000  -0.0023180354739745
                   228  -0.011499786038565
                 64.71  -0.046826727009787
                 21.06   -0.12846616875047
                 7.495   -0.30126627246289
                 2.797   -0.25563070233011
                0.5215      1.093793361012
 s    1 1.00
                0.1596                   1
 p    3 1.00
                 9.439   0.056979251590039
                 2.002    0.31320721150073
                0.5456    0.76037674173753
 p    1 1.00
                0.1517                   1
 d    1 1.00
                  0.55                   1

6 0
 s    8 1.00
                 11720  0.00070964594651845
                  1759  0.0054672722921914
                 400.8   0.027823118610189
                 113.7    0.10474773971146
                 37.03    0.28292084635691
                 13.27    0.44849523869833
                 5.025    0.27081688521277
                 1.013    0.01545029160744
 s    8 1.00
                 11720  -0.00031444341168873
                  1759  -0.0024821376810179
                 400.8  -0.012316355381583
                 113.7  -0.050538917343672
                 37.03   -0.13938490331632
                 13.27   -0.32507749481778
                 5.025   -0.22984830758785
                 1.013     1.0953793467883
 s    1 1.00
                0.3023                   1
 p    3 1.00
                  17.7   0.062679166281506
                 3.854    0.33353656587936
                 1.046    0.74123964163973
 p    1 1.00
                0.2753                   1
 d    1 1.00
                 1.185                   1

7 0
 s    8 1.00
                 11720  0.00070964594651845
                  1759  0.0054672722921914
                 400.8   0.027823118610189
                 113.7    0.10474773971146
                 37.03    0.28292084635691
                 13.27    0.44849523869833
                 5.025    0.27081688521277
                 1.013    0.01545029160744
 s    8 1.00
                 11720  -0.00031444341168873
                  1759  -0.0024821376810179
                 400.8  -0.012316355381583
                 113.7  -0.050538917343672
                 37.03   -0.13938490331632
                 13.27   -0.32507749481778
                 5.025   -0.22984830758785
                 1.013     1.0953793467883
 s    1 1.00
                0.3023                   1
 p    3 1.00
                  17.7   0.062679166281506
                 3.854    0.33353656587936
                 1.046    0.74123964163973
 p    1 1.00
                0.2753                   1
 d    1 1.00
                 1.185                   1

8 0
 s    8 1.00
                 11720  0.00070964594651845
                  1759  0.0054672722921914
                 400.8   0.027823118610189
                 113.7    0.10474773971146
                 37.03    0.28292084635691
                 13.27    0.44849523869833
                 5.025    0.27081688521277
                 1.013    0.01545029160744
 s    8 1.00
                 11720  -0.00031444341168873
                  1759  -0.0024821376810179
                 400.8  -0.012316355381583
                 113.7  -0.050538917343672
                 37.03   -0.13938490331632
                 13.27   -0.32507749481778
                 5.025   -0.22984830758785
                 1.013     1.0953793467883
 s    1 1.00
                0.3023                   1
 p    3 1.00
                  17.7   0.062679166281506
                 3.854    0.33353656587936
                 1.046    0.74123964163973
 p    1 1.00
                0.2753                   1
 d    1 1.00
                 1.185                   1

9 0
 s    8 1.00
                 11720  0.00070964594651845
                  1759  0.0054672722921914
                 400.8   0.027823118610189
                 113.7    0.10474773971146
                 37.03    0.28292084635691
                 13.27    0.44849523869833
                 5.025    0.27081688521277
                 1.013    0.01545029160744
 s    8 1.00
                 11720  -0.00031444341168873
                  1759  -0.0024821376810179
                 400.8  -0.012316355381583
                 113.7  -0.050538917343672
                 37.03   -0.13938490331632
                 13.27   -0.32507749481778
                 5.025   -0.22984830758785
                 1.013     1.0953793467883
 s    1 1.00
                0.3023                   1
 p    3 1.00
                  17.7   0.062679166281506
                 3.854    0.33353656587936
                 1.046    0.74123964163973
 p    1 1.00
                0.2753                   1
 d    1 1.00
                 1.185                   1

10 0
 s    8 1.00
                  6665  0.00069158396281299
                  1000  0.0053257961529341
                   228   0.027060721042034
                 64.71    0.10165684614077
                 21.06     0.2745748236174
                 7.495    0.44829431892377
                 2.797    0.28490261071525
                0.5215   0.015194859206082
 s    8 1.00
                  6665  -0.00029326965268655
                  1000  -0.0023180354739745
                   228  -0.011499786038565
                 64.71  -0.046826727009787
                 21.06   -0.12846616875047
                 7.495   -0.30126627246289
                 2.797   -0.25563070233011
                0.5215      1.093793361012
 s    1 1.00
                0.1596                   1
 p    3 1.00
                 9.439   0.056979251590039
                 2.002    0.31320721150073
                0.5456    0.76037674173753
 p    1 1.00
                0.1517                   1
 d    1 1.00
                  0.55                   1

11 0
 s    8 1.00
                 11720  0.00070964594651845
                  1759  0.0054672722921914
                 400.8   0.027823118610189
                 113.7    0.10474773971146
                 37.03    0.28292084635691
                 13.27    0.44849523869833
                 5.025    0.27081688521277
                 1.013    0.01545029160744
 s    8 1.00
                 11720  -0.00031444341168873
                  1759  -0.0024821376810179
                 400.8  -0.012316355381583
                 113.7  -0.050538917343672
                 37.03   -0.13938490331632
                 13.27   -0.32507749481778
                 5.025   -0.22984830758785
                 1.013     1.0953793467883
 s    1 1.00
                0.3023                   1
 p    3 1.00
                  17.7   0.062679166281506
                 3.854    0.33353656587936
                 1.046    0.74123964163973
 p    1 1.00
                0.2753                   1
 d    1 1.00
                 1.185                   1

12 0
 s    3 1.00
                 13.01   0.033498726389998
                 1.962    0.23480080117413
                0.4446     0.8136829578829
 s    1 1.00
                 0.122                   1
 p    1 1.00
                 0.727                   1

13 0
 s    3 1.00
                 13.01   0.033498726389998
                 1.962    0.23480080117413
                0.4446     0.8136829578829
 s    1 1.00
                 0.122                   1
 p    1 1.00
                 0.727                   1

14 0
 s    3 1.00
                 13.01   0.033498726389998
                 1.962    0.23480080117413
                0.4446     0.8136829578829
 s    1 1.00
                 0.122                   1
 p    1 1.00
                 0.727                   1

15 0
 s    3 1.00
                 13.01   0.033498726389998
                 1.962    0.23480080117413
                0.4446     0.8136829578829
 s    1 1.00
                 0.122                   1
 p    1 1.00
                 0.727                   1

16 0
 s    8 1.00
                 11720  0.00070964594651845
                  1759  0.0054672722921914
                 400.8   0.027823118610189
                 113.7    0.10474773971146
                 37.03    0.28292084635691
                 13.27    0.44849523869833
                 5.025    0.27081688521277
                 1.013    0.01545029160744
 s    8 1.00
                 11720  -0.00031444341168873
                  1759  -0.0024821376810179
                 400.8  -0.012316355381583
                 113.7  -0.050538917343672
                 37.03   -0.13938490331632
                 13.27   -0.32507749481778
                 5.025   -0.22984830758785
                 1.013     1.0953793467883
 s    1 1.00
                0.3023                   1
 p    3 1.00
                  17.7   0.062679166281506
                 3.854    0.33353656587936
                 1.046    0.74123964163973
 p    1 1.00
                0.2753                   1
 d    1 1.00
                 1.185                   1

17 0
 s    3 1.00
                 13.01   0.033498726389998
                 1.962    0.23480080117413
                0.4446     0.8136829578829
 s    1 1.00
                 0.122                   1
 p    1 1.00
                 0.727                   1

18 0
 s    3 1.00
                 13.01   0.033498726389998
                 1.962    0.23480080117413
                0.4446     0.8136829578829
 s    1 1.00
                 0.122                   1
 p    1 1.00
                 0.727                   1

19 0
 s    3 1.00
                 13.01   0.033498726389998
                 1.962    0.23480080117413
                0.4446     0.8136829578829
 s    1 1.00
                 0.122                   1
 p    1 1.00
                 0.727                   1

20 0
 s    3 1.00
                 13.01   0.033498726389998
                 1.962    0.23480080117413
                0.4446     0.8136829578829
 s    1 1.00
                 0.122                   1
 p    1 1.00
                 0.727                   1

21 0
 s    3 1.00
                 13.01   0.033498726389998
                 1.962    0.23480080117413
                0.4446     0.8136829578829
 s    1 1.00
                 0.122                   1
 p    1 1.00
                 0.727                   1

22 0
 s    3 1.00
                 13.01   0.033498726389998
                 1.962    0.23480080117413
                0.4446     0.8136829578829
 s    1 1.00
                 0.122                   1
 p    1 1.00
                 0.727                   1

23 0
 s    3 1.00
                 13.01   0.033498726389998
                 1.962    0.23480080117413
                0.4446     0.8136829578829
 s    1 1.00
                 0.122                   1
 p    1 1.00
                 0.727                   1

24 0
 s    3 1.00
                 13.01   0.033498726389998
                 1.962    0.23480080117413
                0.4446     0.8136829578829
 s    1 1.00
                 0.122                   1
 p    1 1.00
                 0.727                   1

[5d]
[7f]
[9g]

[MO]
 Sym= A
 Ene=     -20.5892274
 Spin= Alpha
 Occup=    2.00000
   1    -0.0018758418959042
   2    0.0060130469096031
   3     0.048201959084191
   4    -0.012742151696038
   5     0.012129115216065
   6    0.0035708732420366
   7    -0.023098020891471
   8     0.035471073132091
   9    0.0075699899394431
  10    -0.000671472365543
  11    0.0016855192399264
  12    0.0010835661284364
  13    -0.001018695746004
  14    -0.0017768469300354
  15    -0.0033367511851943
  16    -0.047156043708587
  17    -0.030723170454269
  18     0.018627114985672
  19     0.027663653926341
  20     -0.05957468214643
  21    -0.038829994440561
  22    -0.002721906535653
  23    -0.034558335836835
  24    -0.013722153198857
  25    -0.013688143715953
  26    -0.0052529926516528
  27    -0.002512063307523
  28    0.0062564841125519
  29    0.0047908372085261
  30    -0.011382423204203
  31     -0.12260531134027
  32    -0.016342851807136
  33    0.0028318204389071
  34    -0.028606799431632
  35    -0.020920862228251
  36    -0.020474727877452
  37    0.0015766450886432
  38    -0.0033306097214395
  39    -0.0022091570493488
  40    -0.00049450613049795
  41    -0.00053210920185056
  42    0.0026368628353593
  43    -0.0036245121626008
  44    -0.0018840951698922
  45     0.067035572362753
  46    -0.0024257296828768
  47    -0.0058588933215618
  48    0.0071249621584204
  49    0.00041304230958574
  50    -0.013536529249804
  51      0.03337482871458
  52    0.00062674153597296
  53    -0.0025400667003711
  54    -0.0011823104321965
  55    0.0007854729960706
  56    0.00048624047204066
  57    0.0011866538917928
  58    0.0020234024452778
  59    -0.017318059305096
  60    1.827873280455e-05
  61    -0.00034375956939911
  62    0.00040699873402309
  63     0.010363076351957
  64    -0.0078672541870834
  65    -0.015341595190228
  66    -9.0782475794964e-05
  67    -0.00032025419673381
  68    -0.00064550858092421
  69    -0.00030131333115864
  70    0.00042741534745945
  71    4.7708543481296e-05
  72    -0.0028998635211168
  73    -0.0088484538849057
  74    0.0053325864070372
  75    -0.00082305518547315
  76    -0.0063003509444191
  77    0.0048369832728437
  78    -0.0039531917430568
  79     -0.01363695587303
  80    3.4881175706914e-05
  81    -0.00026745288534058
  82    0.00035385802915661
  83    0.00011697352919382
  84    -7.6132657536942e-05
  85    -0.0046805388565352
  86      0.34769949357935
  87      0.46580227632775
  88      -0.3467732444659
  89     -0.26565677916832
  90     0.044856481067492
  91     -0.25329782972926
  92     -0.20215591153567
  93       0.0451690452968
  94    0.0047689092452408
  95    0.0028136615650919
  96    0.0034389067088805
  97    -0.0050299111844627
  98    -0.011708082705303
  99    0.00045542389370457
 100    -0.0022651921452927
 101    -0.0041067773416107
 102    0.0010075399209496
 103    0.0031998067539655
 104    -0.0087253310071545
 105      0.01226707924517
 106    0.0024792071726647
 107    -0.014582366526852
 108    -0.0001372582608583
 109    -0.00042617635730421
 110    0.00047010933972144
 111    9.3777225855376e-05
 112    6.0501443014254e-05
 113    -4.8210574363721e-05
 114    -0.00071022464960184
 115    -0.0012112968612416
 116    -0.00018016626594023
 117    0.00041468834994902
 118    -0.0023898070987441
 119    -0.00029620756183112
 120    0.0029870900651337
 121    -0.0058429661255003
 122    8.0995570689074e-06
 123    4.7872405494611e-05
 124    -2.726301561758e-06
 125    3.6505614507042e-05
 126    -8.682440081137e-06
 127    -0.00027874959256832
 128    -0.00076793220389685
 129    -0.0043655232858511
 130    0.00013670155393619
 131    0.0002854284331974
 132    -0.00032741780506152
 133    -0.007024576369113
 134    0.0054009339997524
 135    0.00073622700291586
 136    0.00019905114418233
 137    -0.00012219509413009
 138    0.00037520771334716
 139    0.00017880802755223
 140    1.7219034498319e-05
 141    0.00019725314159657
 142    0.00041907212065499
 143    -0.001412370529587
 144    0.00027188650230786
 145    1.5218076457523e-05
 146    0.0003515757353703
 147    0.0020279010608069
 148    -0.00074709886028727
 149    -4.9137432869557e-05
 150    6.9587395541866e-06
 151    5.1727000239244e-05
 152    -2.2485260901387e-05
 153    -6.0545260206628e-05
 154    2.5518117294435e-05
 155    -0.091606901864422
 156    -0.016586611401048
 157    -0.007131269875085
 158    -0.010566351283769
 159    0.0097060739930698
 160    0.00050630306416249
 161     0.025793769984186
 162    0.0027432015587241
 163    -0.0004197979970978
 164    0.00077880176350753
 165    0.00054832365967845
 166    0.0016037501829318
 167    0.00026017960561717
 168    -6.54784345321e-06
 169    2.6622466434275e-05
 170    -9.4054525040221e-05
 171    -0.0017134579690376
 172    -0.00033890430100292
 173    -9.6459466955655e-05
 174    1.2755902535693e-05
 175    0.0012667223327389
 176    0.0043271364635034
 177    -0.0057278438652791
 178    -0.0048758128876103
 179    -0.0016343900964611
 180    0.0040820227934256
 181    0.0044240811098413
 182    -0.0027715870299088
 183    0.0028928178479258
 184    -7.6997936230803e-05
 185    0.00077554302230621
 186    -3.008451436098e-05
 187    -6.975119502099e-05
 188    -0.00021423646452393
 189    0.00037679685121722
 190    -0.0069599064707377
 191    -0.00081924191585709
 192    9.6134675442497e-06
 193    0.0011157715799555
 194    -0.00083151519517731
 195     0.022419589965961
 196    -0.00022845534389537
 197    0.00075038899203635
 198    0.00041255198713503
 199     0.020121348050307
 200     0.034402888676155
 201    0.0022236036588239
 202    0.00075447774601772
 203    -0.00072622822894574
 204    -0.0069160042434773
 205      0.01353203506931
 206    -4.1341898612422e-06
 207    -0.00047948567089015
 208    0.00072161277183192
 209    -0.0047459172889758
 210    -0.00056991795506736
 211    -0.00022264558172759
 212    0.00013248454668714
 213    -0.00035520380380295
 214    0.0002007928690925
 215    -0.0089015259258595
 216    -5.7687950129086e-05
 217    -0.00038954322393499
 218    0.0005077157549708
 219    -0.00060828288539165
 220    -0.00093769981726773
 221    0.00022827777509441
 222    -0.00013205700768481
 223    0.0001333138286966
 224    0.00032911807564121
 225    0.0045322696576532
 226    -6.4702667856346e-05
 227    -4.540247579707e-05
 228    -2.3421887619957e-05
