#INFO: **** input file is /home/yichi/research/software/cs_afqmc/ad_afqmc/cisd_perturb/test.py ****
from pyscf import gto, scf, cc
import numpy as np
from jax import numpy as jnp
from jax import vmap

a = 1.5 # 2aB
nH = 4
atoms = ""
for i in range(nH):
    atoms += f"H {i*a:.5f} 0.00000 0.00000 \n"

mol = gto.M(atom=atoms, basis="sto6g", verbose=4)
mol.build()

mf = scf.RHF(mol)#.density_fit()
e = mf.kernel()

mycc = cc.CCSD(mf)
e = mycc.kernel()

options = {'n_eql': 4,
           'n_prop_steps': 10,
            'n_ene_blocks': 1,
            'n_sr_blocks': 10,
            'n_blocks': 10,
            'n_walkers': 2,
            'seed': 2,
            'walker_type': 'rhf',
            'trial': 'cisd',
            'dt':0.005,
            'free_projection':False,
            'ad_mode':None,
            'use_gpu': False,
            }

from ad_afqmc import pyscf_interface, mpi_jax, wavefunctions
from ad_afqmc.cisd_perturb import sample_pt
pyscf_interface.prep_afqmc(mycc,chol_cut=1e-7)

sample_pt.run_afqmc_cisd_pt(options,nproc=5)
#INFO: ******************** input file end ********************


System: uname_result(system='Linux', node='yichi-thinkpad', release='4.4.0-26100-Microsoft', version='#5074-Microsoft Fri Jan 01 08:00:00 PST 2016', machine='x86_64')  Threads 12
Python 3.10.16 | packaged by conda-forge | (main, Dec  5 2024, 14:16:10) [GCC 13.3.0]
numpy 1.24.3  scipy 1.14.1  h5py 3.12.1
Date: Mon Oct  6 13:35:45 2025
PySCF version 2.8.0
PySCF path  /home/yichi/research/software/lno_pyscf
GIT HEAD (branch master) ef75f4190e4de208685670651dc6c467f72b6794

[ENV] PYSCF_EXT_PATH /home/yichi/research/software/pyscf
[CONFIG] conf_file None
[INPUT] verbose = 4
[INPUT] num. atoms = 4
[INPUT] num. electrons = 4
[INPUT] charge = 0
[INPUT] spin (= nelec alpha-beta = 2S) = 0
[INPUT] symmetry False subgroup None
[INPUT] Mole.unit = angstrom
[INPUT] Symbol           X                Y                Z      unit          X                Y                Z       unit  Magmom
[INPUT]  1 H      0.000000000000   0.000000000000   0.000000000000 AA    0.000000000000   0.000000000000   0.000000000000 Bohr   0.0
[INPUT]  2 H      1.500000000000   0.000000000000   0.000000000000 AA    2.834589186848   0.000000000000   0.000000000000 Bohr   0.0
[INPUT]  3 H      3.000000000000   0.000000000000   0.000000000000 AA    5.669178373695   0.000000000000   0.000000000000 Bohr   0.0
[INPUT]  4 H      4.500000000000   0.000000000000   0.000000000000 AA    8.503767560543   0.000000000000   0.000000000000 Bohr   0.0

nuclear repulsion = 1.52873416488
number of shells = 4
number of NR pGTOs = 24
number of NR cGTOs = 4
basis = sto6g
ecp = {}
CPU time:         1.12


******** <class 'pyscf.scf.hf.RHF'> ********
method = RHF
initial guess = minao
damping factor = 0
level_shift factor = 0
DIIS = <class 'pyscf.scf.diis.CDIIS'>
diis_start_cycle = 1
diis_space = 8
diis_damp = 0
SCF conv_tol = 1e-09
SCF conv_tol_grad = None
SCF max_cycles = 50
direct_scf = True
direct_scf_tol = 1e-13
chkfile to save SCF result = /tmp/tmpxqhek96v
max_memory 4000 MB (current use 131 MB)
Set gradient conv threshold to 3.16228e-05
Initial guess from minao.
init E= -1.25400672440918
  HOMO = -0.196338381874407  LUMO = 0.0263432378732701
cycle= 1 E= -1.84005933507816  delta_E= -0.586  |g|= 0.0596  |ddm|= 1.47
  HOMO = -0.294732568227935  LUMO = 0.119787799138635
cycle= 2 E= -1.84405278465786  delta_E= -0.00399  |g|= 0.0232  |ddm|= 0.152
  HOMO = -0.301834854077848  LUMO = 0.12860786111182
cycle= 3 E= -1.84478113606802  delta_E= -0.000728  |g|= 0.00323  |ddm|= 0.0881
  HOMO = -0.302366976245765  LUMO = 0.12858522085967
cycle= 4 E= -1.84478848460262  delta_E= -7.35e-06  |g|= 6.15e-05  |ddm|= 0.0084
  HOMO = -0.302312231994017  LUMO = 0.128550751350287
cycle= 5 E= -1.8447884877262  delta_E= -3.12e-09  |g|= 3.38e-05  |ddm|= 0.000107
  HOMO = -0.302291442449674  LUMO = 0.128537674861949
cycle= 6 E= -1.84478848843588  delta_E= -7.1e-10  |g|= 2.32e-05  |ddm|= 4.06e-05
  HOMO = -0.302247762890424  LUMO = 0.128512044950956
Extra cycle  E= -1.84478848898008  delta_E= -5.44e-10  |g|= 8.39e-06  |ddm|= 5.98e-05
converged SCF energy = -1.84478848898008

******** <class 'pyscf.cc.ccsd.CCSD'> ********
CC2 = 0
CCSD nocc = 2, nmo = 4
max_cycle = 50
direct = 0
conv_tol = 1e-07
conv_tol_normt = 1e-05
diis_space = 6
diis_start_cycle = 0
diis_start_energy_diff = 1e+09
max_memory 4000 MB (current use 136 MB)
Init t2, MP2 energy = -1.93160951605396  E_corr(MP2) -0.0868210270738816
Init E_corr(CCSD) = -0.0868210271344145
cycle = 1  E_corr(CCSD) = -0.128511946673767  dE = -0.0416909195  norm(t1,t2) = 0.125477
cycle = 2  E_corr(CCSD) = -0.148949110154808  dE = -0.0204371635  norm(t1,t2) = 0.0661739
cycle = 3  E_corr(CCSD) = -0.166223180421201  dE = -0.0172740703  norm(t1,t2) = 0.033412
cycle = 4  E_corr(CCSD) = -0.168229076118528  dE = -0.0020058957  norm(t1,t2) = 0.0122444
cycle = 5  E_corr(CCSD) = -0.168732983448651  dE = -0.00050390733  norm(t1,t2) = 0.00861462
cycle = 6  E_corr(CCSD) = -0.169998861520842  dE = -0.00126587807  norm(t1,t2) = 0.00293897
cycle = 7  E_corr(CCSD) = -0.169191884596481  dE = 0.000806976924  norm(t1,t2) = 0.00123143
cycle = 8  E_corr(CCSD) = -0.169388985742464  dE = -0.000197101146  norm(t1,t2) = 0.000453042
cycle = 9  E_corr(CCSD) = -0.169389242324438  dE = -2.56581975e-07  norm(t1,t2) = 3.65926e-06
cycle = 10  E_corr(CCSD) = -0.169389327076246  dE = -8.47518075e-08  norm(t1,t2) = 7.86029e-07
CCSD converged
E(CCSD) = -2.014177816056328  E_corr = -0.1693893270762456
# Hostname: yichi-thinkpad
# System Type: Linux
# Machine Type: x86_64
# Processor: x86_64
#
# Preparing AFQMC calculation
# If you import pyscf cc modules and use MPI for AFQMC in the same script, finalize MPI before calling the AFQMC driver.
# Calculating Cholesky integrals
# Finished calculating Cholesky integrals
#
# Size of the correlation space:
# Number of electrons: (2, 2)
# Number of basis functions: 4
# Number of Cholesky vectors: 9
#
# Hostname: yichi-thinkpad
# System Type: Linux
# Machine Type: x86_64
# Processor: x86_64
# Number of MPI ranks: 5
#
# norb: 4
# nelec: (2, 2)
#
# n_eql: 4
# n_prop_steps: 10
# n_ene_blocks: 1
# n_sr_blocks: 10
# n_blocks: 10
# n_walkers: 2
# seed: 2
# walker_type: rhf
# trial: cisd
# dt: 0.005
# free_projection: False
# use_gpu: False
# n_exp_terms: 6
# orbital_rotation: True
# do_sr: True
# symmetry: False
# save_walkers: False
# n_batch: 1
# ene0: 0
# LNO: False
# orbE: 0
# maxError: 0.001
#
# Hostname: yichi-thinkpad
# System Type: Linux
# Machine Type: x86_64
# Processor: x86_64
# Equilibration sweeps:
#   Iter 	 energy_pt 	 energy_og 	 Walltime
#     0 	 -2.0141778 	 -2.0141778 	 4.11
#     1 	 -2.0118954 	 -2.0116127 	 9.00 
#     2 	 -2.0192976 	 -2.0066545 	 13.08 
#     3 	 -2.2251585 	 -2.0084782 	 13.09 
#     4 	 -2.5696146 	 -2.0105186 	 13.11 
#
# Sampling sweeps:
#  Iter 	 energy_pt 	 error 		 energy_og 	 error 	 Walltime
     0 	 	 -3.012167 	   None   	 -2.008919 	 0.003131  13.14
     1 	 	 -2.522927 	 0.559579 	 -2.006779 	 0.002057  17.14
     2 	 	 -2.353717 	 0.384657 	 -2.007291 	 0.003318  21.02
     3 	 	 -2.241902 	 0.269362 	 -2.011365 	 0.004679  21.03
     4 	 	 -2.148536 	 0.233165 	 -2.011175 	 0.003850  21.05
     5 	 	 -2.135907 	 0.183579 	 -2.010112 	 0.003163  21.06
     6 	 	 -2.083851 	 0.166598 	 -2.008923 	 0.003090  21.07
     7 	 	 -2.067129 	 0.140808 	 -2.008040 	 0.002892  21.09
     8 	 	 -2.075299 	 0.127915 	 -2.007166 	 0.002758  21.10
     9 	 	 -2.103801 	 0.115166 	 -2.006540 	 0.002635  21.11
# Number of outliers in post: 14 
#
# Mean: -2.01265433e+00
# Block size    # of blocks         Mean                Error
      1               36       -2.01265433e+00       2.387250e-03
      2               18       -2.01265433e+00       2.468036e-03
      3               12       -2.01265433e+00       2.585426e-03
      5                7       -2.01296582e+00       3.074945e-03
     10                3       -2.01154913e+00       3.026596e-03
     15                2       -2.01154913e+00       1.679051e-03
# Stocahstic error estimate: 2.468036e-03
#
#
# Mean: -2.01123934e+00
# Block size    # of blocks         Mean                Error
      1               36       -2.01123934e+00       2.182977e-03
      2               18       -2.01123934e+00       2.142264e-03
      3               12       -2.01123934e+00       2.175552e-03
      5                7       -2.01142110e+00       2.400756e-03
     10                3       -2.01179842e+00       3.815927e-03
     15                2       -2.01179842e+00       1.021832e-03
# Stocahstic error estimate: 2.182977e-03
#
Final Results:
AFQMC/CISD_PT energy: -2.012654 +/- 0.002468
AFQMC/CISD_OG energy: -2.011239 +/- 0.002183
total run time: 21.12
# running AFQMC on CPU
